VARIABLES="w (rad/s)"
"abs(F   1   1)" "angle(F   1   1)"
"abs(F   1   2)" "angle(F   1   2)"
"abs(F   1   3)" "angle(F   1   3)"
"abs(F   1   4)" "angle(F   1   4)"
"abs(F   1   5)" "angle(F   1   5)"
"abs(F   1   6)" "angle(F   1   6)"
Zone t="FKforce - beta =   0.000",I=  2986,F=POINT
  0.1500000E+00  0.6117838E+02 -0.1570796E+01  0.2606928E-02  0.3141536E+01  0.7883643E+04 -0.2362671E-11  0.2260879E-03  0.3596659E-03  0.1218554E+02 -0.1570795E+01  0.5457634E-11  0.1562373E-01
  0.1600000E+00  0.6527339E+02 -0.1570801E+01  0.1293182E-02  0.3141431E+01  0.7882693E+04  0.1852557E-09  0.1240022E-02  0.7113880E-04  0.1300105E+02 -0.1570803E+01  0.1637130E-10 -0.6944333E-02
  0.1700000E+00  0.6937155E+02 -0.1570796E+01  0.1737714E-02  0.1216600E-03  0.7881667E+04  0.1843345E-10  0.1931340E-03 -0.2245318E-03  0.1381719E+02 -0.1570792E+01  0.2000929E-10 -0.3135201E+01
  0.1800000E+00  0.7347301E+02 -0.1570794E+01  0.1306537E-03 -0.2031532E-02  0.7880583E+04 -0.1087251E-10  0.1465976E-03  0.5538950E-04  0.1463396E+02 -0.1570792E+01  0.7276013E-11 -0.3906230E-02
  0.1900000E+00  0.7757819E+02 -0.1570800E+01  0.7960201E-03  0.3141201E+01  0.7879416E+04 -0.3876859E-10  0.1566336E-03  0.3141309E+01  0.1545144E+02 -0.1570792E+01  0.9095347E-11 -0.3132218E+01
  0.2000000E+00  0.8168732E+02 -0.1570796E+01  0.5811453E-03  0.4391025E-03  0.7878190E+04 -0.2988483E-09  0.2982020E-03 -0.3141517E+01  0.1626964E+02 -0.1570803E+01  0.3639338E-11  0.2733694E-01
  0.2100000E+00  0.8580011E+02 -0.1570796E+01  0.1855612E-02 -0.2238452E-03  0.7876923E+04 -0.3405148E-10  0.3008991E-03  0.3482023E-04  0.1708860E+02 -0.1570792E+01  0.3638423E-11 -0.1562373E-01
  0.2200000E+00  0.8991737E+02 -0.1570796E+01  0.1194954E-02  0.3141586E+01  0.7875596E+04 -0.4995059E-09  0.1898495E-04  0.9553771E-02  0.1790842E+02 -0.1570799E+01  0.9094958E-11  0.1562499E-02
  0.2300000E+00  0.9403880E+02 -0.1570795E+01  0.1617670E-03  0.3141264E+01  0.7874199E+04  0.4541768E-09  0.1084328E-02  0.3650300E-05  0.1872903E+02 -0.1570797E+01  0.5462960E-11 -0.3094752E+01
  0.2400000E+00  0.9816505E+02 -0.1570798E+01  0.2431691E-02  0.3141427E+01  0.7872723E+04  0.2933775E-10  0.3549308E-03  0.1976167E-03  0.1955053E+02 -0.1570801E+01  0.1819489E-11 -0.3118160E+01
  0.2500000E+00  0.1022961E+03 -0.1570798E+01  0.2683520E-02 -0.2880536E-04  0.7871183E+04  0.3928242E-09  0.4781559E-03  0.3141432E+01  0.2037302E+02 -0.1570796E+01  0.1825694E-11  0.8572687E-01
  0.2600000E+00  0.1064323E+03 -0.1570798E+01  0.1083732E-02  0.3141544E+01  0.7869606E+04  0.2878132E-09  0.9895861E-03  0.3141544E+01  0.2119642E+02 -0.1570797E+01  0.5458818E-11 -0.2603578E-01
  0.2700000E+00  0.1105736E+03 -0.1570797E+01  0.1742065E-02 -0.3141388E+01  0.7867966E+04 -0.4640061E-09  0.3121048E-03 -0.5147410E-04  0.2202085E+02 -0.1570796E+01  0.1819169E-10  0.3127531E+01
  0.2800000E+00  0.1147206E+03 -0.1570798E+01  0.9323955E-03 -0.5593556E-04  0.7866247E+04  0.3030906E-10  0.1952053E-03 -0.3140883E+01  0.2284639E+02 -0.1570798E+01  0.1273321E-10  0.3134896E+01
  0.2900000E+00  0.1188730E+03 -0.1570796E+01  0.1344323E-02 -0.3141476E+01  0.7864462E+04  0.6821087E-10  0.5155876E-03  0.1301688E-03  0.2367290E+02 -0.1570796E+01  0.1819009E-10 -0.4687466E-02
  0.3000000E+00  0.1230316E+03 -0.1570798E+01  0.6138682E-03  0.8799398E-04  0.7862645E+04  0.6917423E-10  0.4857555E-03 -0.2776441E-03  0.2450062E+02 -0.1570798E+01  0.1091397E-10 -0.3138988E+01
  0.3100000E+00  0.1271962E+03 -0.1570795E+01  0.2295375E-03  0.3141106E+01  0.7860728E+04 -0.9478232E-11  0.1923070E-03 -0.3140681E+01  0.2532951E+02 -0.1570799E+01  0.1273372E-10  0.1116025E-01
  0.3200000E+00  0.1313669E+03 -0.1570795E+01  0.3564417E-02  0.3141529E+01  0.7858788E+04 -0.2180532E-10  0.2397299E-03  0.2258088E-04  0.2615959E+02 -0.1570799E+01  0.1826965E-11 -0.3048116E+01
  0.3300000E+00  0.1355445E+03 -0.1570798E+01  0.6055832E-03 -0.3141390E+01  0.7856762E+04  0.3802690E-09  0.1154616E-03 -0.1467018E-03  0.2699101E+02 -0.1570799E+01  0.7280452E-11  0.3106451E+01
  0.3400000E+00  0.1397289E+03 -0.1570796E+01  0.1084924E-02  0.2008708E-03  0.7854669E+04  0.4685858E-09  0.4784837E-03  0.3141413E+01  0.2782364E+02 -0.1570796E+01  0.7279509E-11  0.3123983E-01
  0.3500000E+00  0.1439202E+03 -0.1570796E+01  0.6548780E-03 -0.2360740E-02  0.7852531E+04 -0.1375778E-09  0.1789183E-03 -0.3140826E+01  0.2865768E+02 -0.1570798E+01  0.1856136E-11 -0.2941194E+01
  0.3600000E+00  0.1481186E+03 -0.1570795E+01  0.1141071E-02  0.3141498E+01  0.7850312E+04  0.2847242E-11  0.3437177E-03 -0.6748490E-03  0.2949307E+02 -0.1570796E+01  0.8526513E-13 -0.1570796E+01
  0.3700000E+00  0.1523248E+03 -0.1570797E+01  0.2104163E-02 -0.3141332E+01  0.7848047E+04  0.4651838E-09  0.3428683E-03  0.1409065E-04  0.3032994E+02 -0.1570798E+01  0.5458152E-11  0.3120762E+01
  0.3800000E+00  0.1565382E+03 -0.1570798E+01  0.1614690E-02  0.3141244E+01  0.7845696E+04 -0.1519423E-10  0.4739687E-03  0.1979682E-03  0.3116827E+02 -0.1570799E+01  0.7279509E-11  0.3123983E-01
  0.3900000E+00  0.1607601E+03 -0.1570796E+01  0.1810849E-02  0.3141310E+01  0.7843298E+04 -0.5775572E-09  0.2305508E-03  0.3837578E-04  0.3200812E+02 -0.1570796E+01  0.1455194E-10 -0.1953123E-02
  0.4000000E+00  0.1649899E+03 -0.1570796E+01  0.5402148E-02 -0.3141575E+01  0.7840841E+04  0.4694123E-09  0.3385395E-03 -0.3141303E+01  0.3284949E+02 -0.1570796E+01  0.1819009E-10  0.4687466E-02
  0.4100000E+00  0.1692279E+03 -0.1570795E+01  0.1168489E-02  0.4144562E-04  0.7838322E+04  0.5931323E-09  0.2366752E-03  0.8819372E-03  0.3369251E+02 -0.1570797E+01  0.5457634E-11  0.1562373E-01
  0.4200000E+00  0.1734747E+03 -0.1570795E+01  0.1017630E-02  0.7614361E-03  0.7835737E+04  0.3499114E-09  0.2321303E-03 -0.3141489E+01  0.3453716E+02 -0.1570796E+01  0.1818992E-10 -0.1562499E-02
  0.4300000E+00  0.1777304E+03 -0.1570798E+01  0.8363726E-03  0.6814779E-03  0.7833104E+04 -0.5554808E-09  0.1800175E-04  0.1128496E-01  0.3538358E+02 -0.1570796E+01  0.1637446E-10 -0.3120762E+01
  0.4400000E+00  0.1819949E+03 -0.1570796E+01  0.5832402E-03  0.3136122E+01  0.7830401E+04 -0.5442546E-09  0.2190249E-03 -0.1218236E-02  0.3623166E+02 -0.1570796E+01  0.1845661E-11 -0.2971381E+01
  0.4500000E+00  0.1862693E+03 -0.1570794E+01  0.7345678E-03 -0.3140911E+01  0.7827636E+04 -0.1770404E-09  0.2409742E-03 -0.9700705E-03  0.3708158E+02 -0.1570796E+01  0.1829837E-11 -0.1089420E+00
  0.4600000E+00  0.1905528E+03 -0.1570796E+01  0.1533986E-02  0.9325456E-03  0.7824794E+04  0.2037657E-09  0.1334049E-02  0.2185107E-03  0.3793337E+02 -0.1570796E+01  0.1546144E-10  0.1838233E-02
  0.4700000E+00  0.1948464E+03 -0.1570796E+01  0.1670182E-02 -0.3140937E+01  0.7821901E+04 -0.9525281E-10  0.3860907E-04  0.3138713E+01  0.3878698E+02 -0.1570798E+01  0.8205166E-11 -0.6933314E-01
  0.4800000E+00  0.1991500E+03 -0.1570796E+01  0.6347905E-04  0.3139803E+01  0.7818955E+04  0.7794616E-09  0.6424040E-03 -0.8861572E-04  0.3964261E+02 -0.1570798E+01  0.1909992E-10 -0.7440339E-02
  0.4900000E+00  0.2034638E+03 -0.1570795E+01  0.1998903E-02 -0.3140163E+01  0.7815935E+04 -0.9341901E-10  0.4114246E-04 -0.4170793E-02  0.4050011E+02 -0.1570796E+01  0.9095125E-11  0.3135343E+01
  0.5000000E+00  0.2077885E+03 -0.1570797E+01  0.6138682E-03 -0.3034275E-04  0.7812860E+04 -0.3356779E-09  0.4432414E-04  0.5350113E-02  0.4135977E+02 -0.1570797E+01  0.9095125E-11 -0.6249919E-02
  0.5100000E+00  0.2121240E+03 -0.1570795E+01  0.3643275E-02 -0.2796569E-03  0.7809720E+04 -0.1354700E-09  0.3924444E-03 -0.8602605E-04  0.4222142E+02 -0.1570796E+01  0.1136868E-12  0.1570796E+01
  0.5200000E+00  0.2164701E+03 -0.1570798E+01  0.1986623E-02 -0.3169067E-03  0.7806524E+04 -0.2309658E-09  0.1529530E-03  0.3029251E-03  0.4308529E+02 -0.1570797E+01  0.1364349E-10  0.3129093E+01
  0.5300000E+00  0.2208280E+03 -0.1570797E+01  0.7594825E-03 -0.5689844E-03  0.7803245E+04 -0.6874600E-10  0.6484985E-03  0.1813103E-04  0.4395126E+02 -0.1570796E+01  0.3639755E-11 -0.3123983E-01
  0.5400000E+00  0.2251974E+03 -0.1570797E+01  0.8982421E-04 -0.4976775E-03  0.7799938E+04 -0.5731262E-10  0.7609725E-03  0.3141343E+01  0.4481953E+02 -0.1570798E+01  0.1826965E-11  0.9347678E-01
  0.5500000E+00  0.2295788E+03 -0.1570796E+01  0.1284659E-02  0.3140836E+01  0.7796549E+04  0.8734416E-09  0.1385362E-03  0.1075615E-02  0.4569005E+02 -0.1570798E+01  0.2001865E-10 -0.3110353E+01
  0.5600000E+00  0.2339723E+03 -0.1570795E+01  0.4177110E-03  0.2836037E-02  0.7793093E+04 -0.2428365E-09  0.7063896E-04 -0.3141268E+01  0.4656289E+02 -0.1570798E+01  0.4560245E-11  0.3066733E+01
  0.5700001E+00  0.2383780E+03 -0.1570794E+01  0.9841326E-03  0.7759976E-03  0.7789581E+04 -0.1932090E-09  0.3415124E-03 -0.3140792E+01  0.4743812E+02 -0.1570798E+01  0.1091527E-10  0.1562373E-01
  0.5800000E+00  0.2427964E+03 -0.1570796E+01  0.1281918E-02  0.3140602E+01  0.7786004E+04  0.1224857E-09  0.1249254E-02 -0.1333519E-03  0.4831573E+02 -0.1570796E+01  0.1016846E-11 -0.4636476E+00
  0.5900000E+00  0.2472283E+03 -0.1570796E+01  0.1324356E-02 -0.3141168E+01  0.7782384E+04 -0.9573648E-11  0.9914488E-03  0.1938594E-03  0.4919602E+02 -0.1570798E+01  0.8188610E-11 -0.2777064E-01
  0.6000000E+00  0.2516731E+03 -0.1570795E+01  0.2008915E-02 -0.2781569E-03  0.7778692E+04 -0.6877142E-09  0.7122831E-03  0.3141095E+01  0.5007875E+02 -0.1570795E+01  0.2819898E-10  0.3123450E+01
  0.6100000E+00  0.2561315E+03 -0.1570796E+01  0.4850328E-02 -0.3141505E+01  0.7774933E+04 -0.4216442E-10  0.4384221E-03 -0.8255406E-03  0.5096404E+02 -0.1570798E+01  0.2728484E-11  0.3141593E+01
  0.6200000E+00  0.2606037E+03 -0.1570797E+01  0.3218055E-02  0.1331265E-03  0.7771118E+04  0.1344171E-08  0.4943907E-03 -0.2988144E-03  0.5185205E+02 -0.1570799E+01  0.1728638E-10  0.3115283E+01
  0.6300000E+00  0.2650899E+03 -0.1570796E+01  0.1139105E-02 -0.3140651E+01  0.7767218E+04  0.1918468E-10  0.3187135E-03  0.3140937E+01  0.5274271E+02 -0.1570797E+01  0.1094719E-10  0.3063626E+01
  0.6400000E+00  0.2695903E+03 -0.1570796E+01  0.3634097E-03  0.8610790E-03  0.7763283E+04  0.1861857E-09  0.2975968E-04  0.3129818E+01  0.5363613E+02 -0.1570797E+01  0.3645077E-11  0.3079174E+01
  0.6500000E+00  0.2741056E+03 -0.1570796E+01  0.2687514E-02 -0.3141571E+01  0.7759275E+04  0.4071316E-09  0.4724711E-03 -0.4011338E-03  0.5453241E+02 -0.1570799E+01  0.8186242E-11 -0.3127705E+01
  0.6600000E+00  0.2786361E+03 -0.1570797E+01  0.3926767E-03  0.3139012E+01  0.7755225E+04  0.1517934E-09  0.1696945E-03 -0.3140768E+01  0.5543158E+02 -0.1570796E+01  0.1910074E-10 -0.3129689E+01
  0.6700001E+00  0.2831823E+03 -0.1570796E+01  0.3702660E-03 -0.3259808E-02  0.7751103E+04  0.8689505E-09  0.6821677E-03 -0.3141315E+01  0.5633381E+02 -0.1570799E+01  0.6382683E-11  0.7130747E-01
  0.6800001E+00  0.2877433E+03 -0.1570796E+01  0.5767409E-03 -0.4695863E-02  0.7746907E+04  0.1904263E-09  0.1729736E-03  0.3138289E+01  0.5723883E+02 -0.1570796E+01  0.9097788E-11 -0.2499479E-01
  0.6900001E+00  0.2923200E+03 -0.1570795E+01  0.9053351E-03 -0.3140967E+01  0.7742663E+04  0.2270972E-09  0.4568606E-06 -0.2865708E+01  0.5814692E+02 -0.1570797E+01  0.2743247E-11  0.3037800E+01
  0.7000000E+00  0.2969139E+03 -0.1570796E+01  0.4561564E-03 -0.3138596E+01  0.7738337E+04 -0.1209295E-08  0.4720241E-03  0.3141282E+01  0.5905822E+02 -0.1570797E+01  0.7355679E-11 -0.2994231E+01
  0.7100000E+00  0.3015238E+03 -0.1570797E+01  0.2717913E-02 -0.5386631E-03  0.7733979E+04  0.2832269E-09  0.1942521E-03 -0.3139148E+01  0.5997270E+02 -0.1570796E+01  0.1942681E-11  0.2782822E+01
  0.7200000E+00  0.3061507E+03 -0.1570796E+01  0.4308822E-03  0.1002905E-02  0.7729536E+04  0.1160548E-08  0.6928594E-03  0.3140963E+01  0.6089034E+02 -0.1570796E+01  0.4582863E-11  0.3017238E+01
  0.7300000E+00  0.3107943E+03 -0.1570796E+01  0.3505290E-02  0.1062762E-04  0.7725054E+04 -0.1138074E-08  0.2292842E-03  0.8037424E-03  0.6181132E+02 -0.1570797E+01  0.1091926E-10  0.3110353E+01
  0.7400000E+00  0.3154562E+03 -0.1570796E+01  0.3301144E-02 -0.3141496E+01  0.7720488E+04 -0.8337947E-09  0.5124509E-03  0.6406295E-04  0.6273574E+02 -0.1570797E+01  0.1874971E-11  0.2896614E+01
  0.7500000E+00  0.3201356E+03 -0.1570796E+01  0.1115025E-02 -0.3140664E+01  0.7715881E+04  0.9269916E-10  0.3227769E-04  0.3131119E+01  0.6366363E+02 -0.1570796E+01  0.1905739E-11 -0.2838708E+01
  0.7600000E+00  0.3248329E+03 -0.1570796E+01  0.1981378E-02 -0.9588774E-04  0.7711207E+04 -0.8502574E-10  0.2912216E-03 -0.2228199E-02  0.6459479E+02 -0.1570797E+01  0.8188610E-11 -0.3113822E+01
  0.7700000E+00  0.3295491E+03 -0.1570796E+01  0.1126534E-02  0.3138359E+01  0.7706456E+04 -0.8430472E-09  0.4117936E-03  0.3141251E+01  0.6552963E+02 -0.1570796E+01  0.7279509E-11  0.3110353E+01
  0.7800000E+00  0.3342836E+03 -0.1570796E+01  0.9798408E-03 -0.3141509E+01  0.7701653E+04 -0.7352242E-10  0.5944669E-03 -0.3141507E+01  0.6646814E+02 -0.1570795E+01  0.2273765E-10  0.4999958E-02
  0.7900000E+00  0.3390378E+03 -0.1570797E+01  0.1105190E-02  0.3140878E+01  0.7696793E+04 -0.2028951E-08  0.2850295E-03  0.6428729E-03  0.6741029E+02 -0.1570797E+01  0.5457264E-11 -0.3131176E+01
  0.8000000E+00  0.3438114E+03 -0.1570796E+01  0.9507550E-03 -0.3139966E+01  0.7691870E+04  0.1859771E-08  0.1138749E-03 -0.2003727E-02  0.6835616E+02 -0.1570796E+01  0.7290155E-11 -0.3079174E+01
  0.8099999E+00  0.3486048E+03 -0.1570796E+01  0.2010286E-02 -0.3372669E-03  0.7686890E+04  0.1705894E-09  0.1645613E-03 -0.3139534E+01  0.6930588E+02 -0.1570796E+01  0.1000703E-10  0.3118869E+01
  0.8200001E+00  0.3534188E+03 -0.1570796E+01  0.4016996E-02 -0.3140870E+01  0.7681850E+04  0.9504962E-09  0.1561792E-03 -0.1371529E-02  0.7025950E+02 -0.1570796E+01  0.1455203E-10 -0.3137686E+01
  0.8300000E+00  0.3582526E+03 -0.1570797E+01  0.2404213E-02  0.4323061E-03  0.7676739E+04 -0.1009361E-08  0.2144501E-03 -0.3140697E+01  0.7121716E+02 -0.1570796E+01  0.3712271E-11  0.2941194E+01
  0.8400000E+00  0.3631082E+03 -0.1570796E+01  0.4810334E-02  0.3141119E+01  0.7671579E+04  0.2330862E-09  0.2408102E-03 -0.3141539E+01  0.7217866E+02 -0.1570797E+01  0.1000848E-10  0.3113191E+01
  0.8500000E+00  0.3679847E+03 -0.1570796E+01  0.4825175E-02  0.3141109E+01  0.7666349E+04  0.1053491E-08  0.5802619E-04  0.3135518E+01  0.7314438E+02 -0.1570797E+01  0.1273407E-10 -0.3128201E+01
  0.8600000E+00  0.3728832E+03 -0.1570796E+01  0.4497225E-03  0.4945288E-02  0.7661069E+04 -0.2178456E-09  0.6382912E-03  0.9848839E-04  0.7411431E+02 -0.1570797E+01  0.6368746E-11 -0.2677931E-01
  0.8700000E+00  0.3778037E+03 -0.1570797E+01  0.1818121E-02  0.7068976E-03  0.7655728E+04 -0.3659245E-09  0.2377185E-03  0.3140182E+01  0.7508843E+02 -0.1570798E+01  0.1000848E-10 -0.3113191E+01
  0.8800000E+00  0.3827468E+03 -0.1570796E+01  0.1038492E-02  0.9470237E-03  0.7650305E+04 -0.1203732E-08  0.2751135E-03 -0.2406901E-02  0.7606687E+02 -0.1570797E+01  0.6375592E-11 -0.3088072E+01
  0.8900001E+00  0.3877123E+03 -0.1570797E+01  0.1268625E-02  0.3141038E+01  0.7644835E+04  0.1925790E-08  0.1797155E-03 -0.9237280E-03  0.7704977E+02 -0.1570797E+01  0.1923459E-11 -0.2810497E+01
  0.9000000E+00  0.3927012E+03 -0.1570796E+01  0.1048446E-02  0.3141351E+01  0.7639316E+04 -0.4408330E-09  0.1026392E-03  0.6510416E-03  0.7803701E+02 -0.1570797E+01  0.6431099E-11  0.2999696E+01
  0.9100001E+00  0.3977141E+03 -0.1570796E+01  0.3374398E-02  0.3141455E+01  0.7633721E+04  0.1561614E-10  0.9641796E-04  0.3141375E+01  0.7902895E+02 -0.1570798E+01  0.9096546E-11 -0.1874780E-01
  0.9200000E+00  0.4027500E+03 -0.1570796E+01  0.1629534E-02  0.1812884E-02  0.7628081E+04 -0.1914392E-08  0.5631298E-03 -0.6739369E-04  0.8002535E+02 -0.1570796E+01  0.6367478E-11 -0.1785525E-01
  0.9300001E+00  0.4078114E+03 -0.1570796E+01  0.4179625E-04  0.3061915E+01  0.7622359E+04 -0.1759435E-09  0.5024001E-03  0.3141566E+01  0.8102665E+02 -0.1570798E+01  0.4576160E-11  0.3029564E+01
  0.9400001E+00  0.4128976E+03 -0.1570796E+01  0.1447499E-02 -0.3141230E+01  0.7616601E+04  0.1897714E-08  0.2116714E-03 -0.3139607E+01  0.8203260E+02 -0.1570797E+01  0.1638284E-10 -0.3817589E-01
  0.9500000E+00  0.4180089E+03 -0.1570798E+01  0.1008451E-02  0.3140584E+01  0.7610759E+04  0.2897703E-09  0.4378260E-03  0.6429318E-03  0.8304342E+02 -0.1570796E+01  0.3682120E-11  0.2986596E+01
  0.9600000E+00  0.4231454E+03 -0.1570796E+01  0.3232479E-02  0.1613439E-03  0.7604864E+04 -0.7641758E-09  0.8663536E-03  0.3141276E+01  0.8405905E+02 -0.1570795E+01  0.5624914E-11  0.2896614E+01
  0.9700000E+00  0.4283090E+03 -0.1570796E+01  0.5174518E-02  0.3141563E+01  0.7598928E+04  0.1882517E-09  0.2404569E-04 -0.3126700E+01  0.8507985E+02 -0.1570797E+01  0.9152320E-11 -0.1120290E+00
  0.9800000E+00  0.4334984E+03 -0.1570797E+01  0.1574160E-02  0.1199829E-02  0.7592922E+04 -0.3100761E-09  0.3266633E-03  0.3141108E+01  0.8610574E+02 -0.1570796E+01  0.1001025E-10 -0.3407771E-01
  0.9900000E+00  0.4387148E+03 -0.1570796E+01  0.1809955E-02  0.3141094E+01  0.7586836E+04  0.3888881E-09  0.2641828E-03 -0.8619350E-03  0.8713684E+02 -0.1570797E+01  0.3729084E-10 -0.3132447E+01
  0.1000000E+01  0.4439581E+03 -0.1570795E+01  0.5112888E-03  0.3140879E+01  0.7580698E+04 -0.1572537E-10  0.1574606E-03  0.4923937E-03  0.8817310E+02 -0.1570796E+01  0.1091394E-10  0.3141593E+01
  0.1010000E+01  0.4492300E+03 -0.1570796E+01  0.6304388E-03 -0.1240899E-02  0.7574511E+04  0.1680055E-08  0.6632662E-03  0.3140297E+01  0.8921475E+02 -0.1570796E+01  0.3366071E-10  0.2364424E-01
  0.1020000E+01  0.4545307E+03 -0.1570796E+01  0.2245605E-02 -0.9621765E-04  0.7568260E+04  0.2035845E-08  0.2645105E-03  0.3141291E+01  0.9026186E+02 -0.1570796E+01  0.1092341E-10 -0.4164258E-01
  0.1030000E+01  0.4598588E+03 -0.1570796E+01  0.1210213E-02 -0.3447596E-03  0.7561948E+04  0.7409250E-09  0.4998446E-03 -0.8291349E-04  0.9131446E+02 -0.1570796E+01  0.1728040E-10  0.0000000E+00
  0.1040000E+01  0.4652163E+03 -0.1570796E+01  0.9112371E-03  0.3139884E+01  0.7555578E+04  0.1842041E-08  0.7052720E-03  0.3997860E-03  0.9237267E+02 -0.1570796E+01  0.6366463E-11  0.3141593E+01
  0.1050000E+01  0.4706036E+03 -0.1570796E+01  0.1268457E-02  0.4041141E-02  0.7549147E+04 -0.8290324E-10  0.2952814E-03  0.5677230E-04  0.9343659E+02 -0.1570796E+01  0.1001477E-10  0.4542328E-01
  0.1060000E+01  0.4760212E+03 -0.1570797E+01  0.7525755E-03  0.4375863E-02  0.7542665E+04 -0.1375006E-08  0.5811088E-03 -0.3139989E+01  0.9450620E+02 -0.1570796E+01  0.1458031E-10  0.6241881E-01
  0.1070000E+01  0.4814695E+03 -0.1570797E+01  0.2616764E-02 -0.7431323E-03  0.7536123E+04  0.9570124E-09  0.4822910E-03  0.3141261E+01  0.9558173E+02 -0.1570796E+01  0.7382645E-11  0.1702119E+00
  0.1080000E+01  0.4869478E+03 -0.1570797E+01  0.1057625E-02 -0.3141557E+01  0.7529509E+04  0.5264233E-09  0.5570129E-03 -0.2533072E-03  0.9666315E+02 -0.1570797E+01  0.4687428E-11 -0.2449787E+00
  0.1090000E+01  0.4924582E+03 -0.1570796E+01  0.1493097E-03 -0.9980036E-03  0.7522832E+04 -0.1319207E-08  0.6356091E-03  0.3141041E+01  0.9775071E+02 -0.1570796E+01  0.9374857E-12 -0.2896614E+01
  0.1100000E+01  0.4980009E+03 -0.1570796E+01  0.1014353E-02 -0.1630625E-02  0.7516105E+04  0.1463132E-08  0.4638284E-03 -0.2063120E-03  0.9884451E+02 -0.1570797E+01  0.2000921E-10 -0.5681757E-02
  0.1110000E+01  0.5035755E+03 -0.1570796E+01  0.1787191E-02  0.3139091E+01  0.7509329E+04 -0.3611523E-09  0.3743693E-03  0.3141519E+01  0.9994433E+02 -0.1570796E+01  0.8188610E-11  0.2777064E-01
  0.1120000E+01  0.5091831E+03 -0.1570796E+01  0.2771974E-02 -0.4031738E-03  0.7502473E+04 -0.4846247E-09  0.5226073E-03 -0.2184819E-02  0.1010505E+03 -0.1570796E+01  0.6370522E-11  0.3569911E-01
  0.1130000E+01  0.5148238E+03 -0.1570797E+01  0.1019838E-02  0.3139364E+01  0.7495588E+04  0.7395327E-09  0.2198385E-03 -0.3945152E-02  0.1021631E+03 -0.1570797E+01  0.3653931E-11  0.9347678E-01
  0.1140000E+01  0.5204993E+03 -0.1570796E+01  0.1214147E-02 -0.3141268E+01  0.7488611E+04  0.2427609E-08  0.1358092E-03  0.7029021E-04  0.1032823E+03 -0.1570797E+01  0.8198074E-11 -0.5549851E-01
  0.1150000E+01  0.5262074E+03 -0.1570796E+01  0.2621434E-03 -0.3137557E+01  0.7481602E+04 -0.2127144E-08  0.1925307E-03 -0.3140049E+01  0.1044080E+03 -0.1570797E+01  0.5475883E-11 -0.8314123E-01
  0.1160000E+01  0.5319511E+03 -0.1570796E+01  0.3684166E-03 -0.3140298E+01  0.7474506E+04  0.1283877E-08  0.3479421E-03 -0.3141589E+01  0.1055404E+03 -0.1570796E+01  0.9129697E-11  0.8727771E-01
  0.1170000E+01  0.5377307E+03 -0.1570797E+01  0.2621080E-03 -0.3127408E+01  0.7467382E+04 -0.3671720E-09  0.7123575E-03  0.1542710E-03  0.1066795E+03 -0.1570797E+01  0.1942681E-11  0.3587707E+00
  0.1180000E+01  0.5435457E+03 -0.1570796E+01  0.2220452E-02 -0.6710869E-04  0.7460188E+04 -0.9587636E-10  0.4317611E-03 -0.3141443E+01  0.1078257E+03 -0.1570797E+01  0.4553154E-11  0.3091634E+01
  0.1190000E+01  0.5493970E+03 -0.1570796E+01  0.1068724E-03  0.3094099E+01  0.7452927E+04  0.3598866E-09  0.3250316E-03 -0.3141104E+01  0.1089788E+03 -0.1570796E+01  0.1136868E-11 -0.6435011E+00
  0.1200000E+01  0.5552846E+03 -0.1570796E+01  0.2739321E-03 -0.1887697E-01  0.7445615E+04  0.6004001E-10  0.2782050E-03  0.3140068E+01  0.1101389E+03 -0.1570797E+01  0.1286220E-11  0.7853982E+00
  0.1210000E+01  0.5612106E+03 -0.1570796E+01  0.2455766E-05 -0.2686086E+01  0.7438242E+04 -0.2171596E-08  0.3325495E-03  0.3140262E+01  0.1113062E+03 -0.1570796E+01  0.7298128E-11 -0.7796663E-01
  0.1220000E+01  0.5671742E+03 -0.1570797E+01  0.1393391E-02 -0.4325806E-02  0.7430820E+04 -0.2394350E-08  0.1320844E-03  0.2845068E-02  0.1124807E+03 -0.1570797E+01  0.4781610E-11 -0.2827361E+01
  0.1230000E+01  0.5731759E+03 -0.1570796E+01  0.7660571E-03 -0.3134707E+01  0.7423331E+04 -0.5098648E-09  0.1019336E-02  0.2734115E-03  0.1136629E+03 -0.1570796E+01  0.2730852E-11  0.3099950E+01
  0.1240000E+01  0.5792167E+03 -0.1570796E+01  0.1653025E-03 -0.1509983E-01  0.7415781E+04  0.1852653E-08  0.1284808E-02  0.3925187E-03  0.1148523E+03 -0.1570796E+01  0.2728484E-11  0.3141593E+01
  0.1250000E+01  0.5852957E+03 -0.1570796E+01  0.8655870E-03  0.3137211E+01  0.7408174E+04 -0.4867705E-09  0.2151732E-03 -0.3139472E+01  0.1160490E+03 -0.1570796E+01  0.3701375E-11  0.1853479E+00
  0.1260000E+01  0.5914158E+03 -0.1570796E+01  0.8392959E-03 -0.3138983E+01  0.7400514E+04 -0.2053801E-09  0.7769540E-03  0.1750079E-03  0.1172537E+03 -0.1570796E+01  0.0000000E+00  0.0000000E+00
  0.1270000E+01  0.5975759E+03 -0.1570797E+01  0.2595305E-02 -0.3141317E+01  0.7392805E+04 -0.1511723E-08  0.2636464E-03 -0.8928317E-03  0.1184662E+03 -0.1570796E+01  0.5467616E-11 -0.3079174E+01
  0.1280000E+01  0.6037766E+03 -0.1570796E+01  0.2850473E-02  0.2875185E-03  0.7385035E+04 -0.2703786E-09  0.3621781E-04  0.5425785E-02  0.1196862E+03 -0.1570796E+01  0.1942681E-11 -0.3587707E+00
  0.1290000E+01  0.6100190E+03 -0.1570797E+01  0.4220665E-02 -0.6019544E-03  0.7377198E+04  0.2565266E-08  0.5356968E-03 -0.5598053E-03  0.1209145E+03 -0.1570796E+01  0.1187796E-10 -0.3045733E+01
  0.1300000E+01  0.6163034E+03 -0.1570796E+01  0.3150105E-02 -0.1892148E-03  0.7369303E+04  0.2377941E-08  0.5217448E-03 -0.3138211E+01  0.1221506E+03 -0.1570796E+01  0.2728508E-10  0.4166643E-02
  0.1310000E+01  0.6226306E+03 -0.1570796E+01  0.1342185E-02  0.3408371E-02  0.7361357E+04 -0.2344071E-08  0.2167674E-03  0.1457559E-02  0.1233949E+03 -0.1570796E+01  0.9374857E-12 -0.2449787E+00
  0.1320000E+01  0.6289996E+03 -0.1570796E+01  0.1846439E-02  0.3138937E+01  0.7353350E+04 -0.4052891E-10  0.1867212E-03 -0.3136760E+01  0.1246474E+03 -0.1570796E+01  0.1072519E-11 -0.2582993E+01
  0.1330000E+01  0.6354120E+03 -0.1570797E+01  0.4972028E-04  0.5292173E-01  0.7345292E+04 -0.9981048E-09  0.9677857E-03 -0.3656828E-04  0.1259083E+03 -0.1570796E+01  0.4661160E-11  0.2920278E+01
  0.1340000E+01  0.6418689E+03 -0.1570797E+01  0.2842009E-03  0.6475371E-02  0.7337172E+04  0.1640978E-08  0.3281237E-03 -0.1003349E-02  0.1271776E+03 -0.1570796E+01  0.2787067E-11  0.2053954E+00
  0.1350000E+01  0.6483703E+03 -0.1570797E+01  0.8807184E-03 -0.3140924E+01  0.7329003E+04  0.2391016E-08  0.5218238E-03  0.5412240E-03  0.1284554E+03 -0.1570797E+01  0.6448159E-11  0.2982241E+01
  0.1360000E+01  0.6549172E+03 -0.1570796E+01  0.1930723E-02 -0.3138432E+01  0.7320773E+04  0.4152344E-08  0.3982559E-03 -0.3141182E+01  0.1297421E+03 -0.1570796E+01  0.3749943E-11  0.2896614E+01
  0.1370000E+01  0.6615075E+03 -0.1570796E+01  0.4637450E-04 -0.9479150E-02  0.7312490E+04  0.2037768E-09  0.1699187E-03 -0.3138669E+01  0.1310370E+03 -0.1570796E+01  0.2842171E-11 -0.2857799E+01
  0.1380000E+01  0.6681464E+03 -0.1570796E+01  0.2299190E-02  0.3141249E+01  0.7304145E+04  0.3329438E-08  0.1484756E-03  0.2421212E-02  0.1323412E+03 -0.1570797E+01  0.1639615E-11  0.2158799E+01
  0.1390000E+01  0.6748293E+03 -0.1570796E+01  0.2713087E-02  0.1301682E-02  0.7295760E+04 -0.2099630E-08  0.3039543E-03 -0.3139958E+01  0.1336539E+03 -0.1570796E+01  0.1365946E-10 -0.4995840E-01
  0.1400000E+01  0.6815602E+03 -0.1570797E+01  0.2984348E-02 -0.3140254E+01  0.7287292E+04 -0.1725823E-08  0.3537690E-03 -0.3139905E+01  0.1349757E+03 -0.1570797E+01  0.5499436E-11  0.1243550E+00
  0.1410000E+01  0.6883382E+03 -0.1570796E+01  0.2486408E-02  0.5723360E-03  0.7278787E+04 -0.1785162E-08  0.5850869E-03 -0.9980386E-03  0.1363065E+03 -0.1570796E+01  0.7279509E-11  0.3123983E-01
  0.1420000E+01  0.6951636E+03 -0.1570796E+01  0.4932821E-02 -0.3141171E+01  0.7270228E+04  0.1311753E-09  0.1154849E-03  0.3971753E-02  0.1376467E+03 -0.1570797E+01  0.8249153E-11 -0.1243550E+00
  0.1430000E+01  0.7020377E+03 -0.1570796E+01  0.3189266E-02  0.3141074E+01  0.7261605E+04  0.3636229E-08  0.5489388E-03 -0.3138649E+01  0.1389959E+03 -0.1570796E+01  0.1098535E-10  0.1140858E+00
  0.1440000E+01  0.7089615E+03 -0.1570796E+01  0.5766154E-03 -0.3141063E+01  0.7252928E+04 -0.3607707E-08  0.1659347E-03 -0.3135750E+01  0.1403548E+03 -0.1570796E+01  0.5574134E-11 -0.2936197E+01
  0.1450000E+01  0.7159343E+03 -0.1570796E+01  0.2347411E-02 -0.3140574E+01  0.7244204E+04  0.3702559E-09  0.1862720E-03 -0.8324665E-03  0.1417230E+03 -0.1570796E+01  0.4687428E-11 -0.2896614E+01
  0.1460000E+01  0.7229556E+03 -0.1570796E+01  0.1465983E-02  0.3138569E+01  0.7235418E+04 -0.2636128E-09  0.1231042E-04  0.6298511E-01  0.1431006E+03 -0.1570796E+01  0.5574134E-11  0.2053954E+00
  0.1470000E+01  0.7300280E+03 -0.1570797E+01  0.3272534E-02 -0.3140803E+01  0.7226580E+04 -0.2078489E-08  0.6249174E-03 -0.2608048E-03  0.1444878E+03 -0.1570797E+01  0.9112693E-11  0.3079174E+01
  0.1480000E+01  0.7371497E+03 -0.1570796E+01  0.1761079E-02  0.2242266E-03  0.7217691E+04  0.4310745E-08  0.4130457E-03  0.3140260E+01  0.1458845E+03 -0.1570796E+01  0.8192554E-11 -0.4164258E-01
  0.1490000E+01  0.7443228E+03 -0.1570796E+01  0.1637046E-02 -0.2307478E-02  0.7208739E+04  0.2563200E-09  0.1288436E-03 -0.3138163E+01  0.1472909E+03 -0.1570797E+01  0.1740114E-10 -0.3023721E+01
  0.1500000E+01  0.7515466E+03 -0.1570796E+01  0.1358391E-02 -0.3140501E+01  0.7199736E+04 -0.7450854E-10  0.2788422E-04  0.3104628E+01  0.1487076E+03 -0.1570796E+01  0.5684342E-11 -0.2837941E+00
  0.1510000E+01  0.7588237E+03 -0.1570797E+01  0.1302961E-02  0.2464542E-02  0.7190681E+04  0.6962887E-09  0.1432822E-03 -0.3140608E+01  0.1501338E+03 -0.1570797E+01  0.1546517E-10  0.3119537E+01
  0.1520000E+01  0.7661526E+03 -0.1570796E+01  0.4548263E-03 -0.1372784E-01  0.7181573E+04 -0.2149613E-08  0.5516633E-03 -0.1434977E-04  0.1515703E+03 -0.1570797E+01  0.3217558E-11 -0.5585993E+00
  0.1530000E+01  0.7735332E+03 -0.1570796E+01  0.9921285E-03  0.3137297E+01  0.7172414E+04  0.2085876E-08  0.6370918E-03  0.4670561E-03  0.1530165E+03 -0.1570797E+01  0.3885363E-11 -0.2782822E+01
  0.1540000E+01  0.7809668E+03 -0.1570796E+01  0.3647372E-04 -0.3014603E+01  0.7163196E+04 -0.1439526E-08  0.5285144E-03  0.1066102E-03  0.1544731E+03 -0.1570797E+01  0.2457766E-10 -0.4164258E-01
  0.1550000E+01  0.7884547E+03 -0.1570796E+01  0.1655071E-02 -0.5928731E-02  0.7153919E+04 -0.5082366E-09  0.6024465E-03  0.3141282E+01  0.1559398E+03 -0.1570797E+01  0.9713407E-12 -0.3587707E+00
  0.1560000E+01  0.7959950E+03 -0.1570796E+01  0.1230300E-02  0.7267089E-03  0.7144591E+04  0.2511130E-08  0.6002198E-04  0.1823173E-02  0.1574167E+03 -0.1570796E+01  0.1072519E-11  0.2582993E+01
  0.1570000E+01  0.8035887E+03 -0.1570796E+01  0.1185035E-03  0.3414626E-01  0.7135228E+04  0.8854787E-09  0.8144540E-03 -0.1788424E-02  0.1589036E+03 -0.1570796E+01  0.4570154E-11 -0.9966865E-01
  0.1580000E+01  0.8112386E+03 -0.1570796E+01  0.1232505E-02  0.3140716E+01  0.7125797E+04  0.9117445E-09  0.2303983E-03  0.3135677E+01  0.1604011E+03 -0.1570797E+01  0.8361201E-11  0.2936197E+01
  0.1590000E+01  0.8189410E+03 -0.1570796E+01  0.3022969E-02 -0.7147504E-03  0.7116317E+04 -0.1340123E-09  0.2428964E-03 -0.5559645E-03  0.1619093E+03 -0.1570797E+01  0.5752150E-11  0.2819842E+01
  0.1600000E+01  0.8266995E+03 -0.1570797E+01  0.1415492E-02  0.1063247E-02  0.7106788E+04 -0.1174180E-09  0.8544403E-03  0.3140761E+01  0.1634275E+03 -0.1570796E+01  0.1206206E-10  0.1992440E+00
  0.1610000E+01  0.8345129E+03 -0.1570797E+01  0.1062011E-02  0.3133525E+01  0.7097202E+04  0.1461310E-08  0.5077486E-05  0.8548702E-01  0.1649563E+03 -0.1570796E+01  0.6972072E-11  0.4198799E+00
  0.1620000E+01  0.8423809E+03 -0.1570796E+01  0.4047317E-03  0.8928334E-02  0.7087563E+04 -0.1177365E-09  0.3918561E-03 -0.3140496E+01  0.1664958E+03 -0.1570796E+01  0.9214247E-11  0.2980501E+01
  0.1630000E+01  0.8503047E+03 -0.1570796E+01  0.9094696E-04 -0.3080605E+01  0.7077872E+04 -0.3326400E-08  0.9345487E-03 -0.1036410E-03  0.1680457E+03 -0.1570796E+01  0.2033692E-11 -0.4636476E+00
  0.1640000E+01  0.8582830E+03 -0.1570796E+01  0.1290500E-02 -0.3141546E+01  0.7068133E+04 -0.7420926E-09  0.4143743E-03 -0.3688220E-02  0.1696063E+03 -0.1570796E+01  0.7499885E-11 -0.2896614E+01
  0.1650000E+01  0.8663184E+03 -0.1570796E+01  0.3315449E-02  0.1258450E-03  0.7058347E+04  0.3800053E-08  0.4177405E-03  0.3139041E+01  0.1711775E+03 -0.1570796E+01  0.7279509E-11 -0.3123983E-01