VARIABLES="w (rad/s)"
"abs(F   1   1)" "angle(F   1   1)"
"abs(F   1   2)" "angle(F   1   2)"
"abs(F   1   3)" "angle(F   1   3)"
"abs(F   1   4)" "angle(F   1   4)"
"abs(F   1   5)" "angle(F   1   5)"
"abs(F   1   6)" "angle(F   1   6)"
Zone t="Diffraction force - beta =   0.000 deg",I=  2986,F=POINT
  0.1500000E+00  0.1649787E+04 -0.1570722E+01  0.2793968E-07 -0.9272952E+00  0.2476845E+00 -0.3014528E+01  0.1829738E-06 -0.3054428E-01  0.4224042E+04 -0.1570722E+01  0.2389846E-04  0.1569292E+01
  0.1600000E+00  0.1762545E+04 -0.1570711E+01  0.6938353E-07 -0.3141592E+01  0.2799721E+00 -0.3013732E+01  0.6383468E-07 -0.1165905E+01  0.4515064E+04 -0.1570711E+01  0.1145028E-05  0.1694956E+01
  0.1700000E+00  0.1873698E+04 -0.1570700E+01  0.3442431E-07 -0.2094976E+01  0.3143741E+00 -0.3013212E+01  0.6496103E-07  0.1127186E+01  0.4800945E+04 -0.1570700E+01  0.1056448E-03  0.1571213E+01
  0.1800000E+00  0.1984716E+04 -0.1570688E+01  0.3959011E-07 -0.2952271E+01  0.3505631E+00 -0.3012389E+01  0.3320361E-06 -0.2813819E+00  0.5086639E+04 -0.1570688E+01  0.2392055E-04  0.1570903E+01
  0.1900000E+00  0.2094542E+04 -0.1570676E+01  0.4056936E-07 -0.1977949E+01  0.3884558E+00 -0.3011800E+01  0.2795296E-06  0.1601620E+01  0.5367817E+04 -0.1570676E+01  0.9402075E-04  0.1571308E+01
  0.2000000E+00  0.2204151E+04 -0.1570663E+01  0.4790883E-07  0.1938668E+01  0.4285372E+00 -0.3011172E+01  0.2421844E-06 -0.1045628E+01  0.5648464E+04 -0.1570663E+01  0.1009563E-03 -0.1570899E+01
  0.2100000E+00  0.2314141E+04 -0.1570649E+01  0.1952809E-06 -0.1697518E+01  0.4703348E+00 -0.3010705E+01  0.4652385E-06 -0.1396762E+01  0.5930565E+04 -0.1570649E+01  0.1193938E-03  0.1569181E+01
  0.2200000E+00  0.2424209E+04 -0.1570634E+01  0.1003800E-06  0.2042742E+01  0.5140812E+00 -0.3010132E+01  0.1962701E-06  0.1332571E+00  0.6213116E+04 -0.1570634E+01  0.1515341E-03  0.1570566E+01
  0.2300000E+00  0.2534515E+04 -0.1570618E+01  0.2882966E-07 -0.5431896E+00  0.5597637E+00 -0.3009665E+01  0.6846419E-07  0.2275549E+01  0.6496607E+04 -0.1570619E+01  0.7079491E-04 -0.1564599E+01
  0.2400000E+00  0.2645471E+04 -0.1570602E+01  0.9004618E-07  0.1451573E+01  0.6070600E+00 -0.3009139E+01  0.4599805E-06 -0.2661759E+01  0.6782390E+04 -0.1570603E+01  0.3996727E-04  0.1571888E+01
  0.2500000E+00  0.2755754E+04 -0.1570586E+01  0.1862645E-07  0.2214298E+01  0.6560845E+00 -0.3008660E+01  0.2571136E-06 -0.1593890E+01  0.7065523E+04 -0.1570586E+01  0.3004735E-03  0.1571011E+01
  0.2600000E+00  0.2865658E+04 -0.1570568E+01  0.1568283E-06  0.1253741E+01  0.7070270E+00 -0.3008176E+01  0.3745040E-06  0.3066919E+01  0.7347491E+04 -0.1570568E+01  0.1638794E-03  0.1572101E+01
  0.2700000E+00  0.2975606E+04 -0.1570549E+01  0.1412183E-06  0.1889419E+01  0.7598975E+00 -0.3007777E+01  0.1620776E-06 -0.1723664E+01  0.7629862E+04 -0.1570550E+01  0.2861643E-03  0.1570471E+01
  0.2800000E+00  0.3085925E+04 -0.1570530E+01  0.2963084E-07  0.2614650E+01  0.8142942E+00 -0.3007352E+01  0.1456264E-06 -0.3838114E-01  0.7913663E+04 -0.1570531E+01  0.1155931E-03  0.1569414E+01
  0.2900000E+00  0.3196149E+04 -0.1570511E+01  0.1728250E-06  0.1039619E+01  0.8705675E+00 -0.3006912E+01  0.6895870E-06 -0.3016764E+00  0.8197257E+04 -0.1570511E+01  0.1042564E-03 -0.1570992E+01
  0.3000000E+00  0.3306218E+04 -0.1570490E+01  0.1873880E-06  0.2222250E+01  0.9288070E+00 -0.3006588E+01  0.7601279E-06  0.1154267E+00  0.8480455E+04 -0.1570490E+01  0.1463346E-03  0.1568190E+01
  0.3100000E+00  0.3416437E+04 -0.1570468E+01  0.1251720E-06  0.2504044E+01  0.9884232E+00 -0.3006155E+01  0.1035378E-05 -0.1391969E+01  0.8764282E+04 -0.1570469E+01  0.2461965E-03  0.1570391E+01
  0.3200000E+00  0.3527263E+04 -0.1570446E+01  0.1049051E-06 -0.1677532E+01  0.1049771E+01 -0.3005732E+01  0.7116671E-06 -0.1185065E+01  0.9050246E+04 -0.1570446E+01  0.1935121E-03 -0.1570683E+01
  0.3300000E+00  0.3637517E+04 -0.1570423E+01  0.9912791E-07 -0.2673743E+01  0.1112737E+01 -0.3005420E+01  0.9407956E-06 -0.5384247E+00  0.9333974E+04 -0.1570423E+01  0.2451326E-03 -0.1571909E+01
  0.3400000E+00  0.3747824E+04 -0.1570399E+01  0.1640424E-06 -0.1531045E+01  0.1177543E+01 -0.3005030E+01  0.4522204E-06  0.2818865E+01  0.9617922E+04 -0.1570400E+01  0.1249495E-03  0.1569953E+01
  0.3500000E+00  0.3857514E+04 -0.1570374E+01  0.2822153E-06 -0.9140947E+00  0.1244205E+01 -0.3004702E+01  0.1875513E-06 -0.1754314E+01  0.9900210E+04 -0.1570375E+01  0.3601992E-04  0.1573064E+01
  0.3600000E+00  0.3967446E+04 -0.1570349E+01  0.1286709E-06  0.1956679E+01  0.1312435E+01 -0.3004310E+01  0.6346173E-06  0.2192283E+01  0.1018337E+05 -0.1570349E+01  0.3883899E-04 -0.1545782E+01
  0.3700000E+00  0.4077714E+04 -0.1570322E+01  0.1271008E-06 -0.2361376E+01  0.1381894E+01 -0.3003931E+01  0.5066140E-06  0.2140698E+01  0.1046789E+05 -0.1570322E+01  0.1391796E-03 -0.1570608E+01
  0.3800000E+00  0.4187765E+04 -0.1570295E+01  0.1890034E-06 -0.7888825E+00  0.1453356E+01 -0.3003616E+01  0.1065065E-05 -0.2460570E+01  0.1075174E+05 -0.1570296E+01  0.3543804E-04 -0.1562518E+01
  0.3900000E+00  0.4297707E+04 -0.1570266E+01  0.2697703E-06 -0.1678022E+01  0.1526397E+01 -0.3003223E+01  0.2035916E-05 -0.1496393E+01  0.1103547E+05 -0.1570267E+01  0.4854073E-03  0.1570114E+01
  0.4000000E+00  0.4407776E+04 -0.1570237E+01  0.9132661E-07 -0.1776192E+01  0.1601382E+01 -0.3002919E+01  0.8279139E-06 -0.8885889E+00  0.1131973E+05 -0.1570238E+01  0.2839138E-03  0.1571640E+01
  0.4100000E+00  0.4518190E+04 -0.1570207E+01  0.9071675E-07  0.3347368E+00  0.1678132E+01 -0.3002618E+01  0.1216325E-05 -0.1565436E+01  0.1160532E+05 -0.1570208E+01  0.2968425E-03 -0.1574565E+01
  0.4200000E+00  0.4629087E+04 -0.1570176E+01  0.4314628E-06  0.1313253E+01  0.1755485E+01 -0.3002205E+01  0.1125826E-05 -0.2092559E+01  0.1189267E+05 -0.1570177E+01  0.1284988E-03 -0.1566135E+01
  0.4300000E+00  0.4739557E+04 -0.1570144E+01  0.1005872E-06  0.6342421E+00  0.1835166E+01 -0.3001914E+01  0.5694761E-06  0.2314552E+01  0.1217851E+05 -0.1570145E+01  0.5230224E-03  0.1570740E+01
  0.4400000E+00  0.4849891E+04 -0.1570111E+01  0.1318142E-06 -0.7454195E+00  0.1916059E+01 -0.3001606E+01  0.5021429E-06  0.2765563E+01  0.1246376E+05 -0.1570112E+01  0.2373024E-04 -0.1567408E+01
  0.4500000E+00  0.4960114E+04 -0.1570077E+01  0.5009867E-06 -0.1882553E+01  0.1998697E+01 -0.3001282E+01  0.1626751E-05  0.5306501E+00  0.1274880E+05 -0.1570078E+01  0.3090203E-03 -0.1570950E+01
  0.4600000E+00  0.5069926E+04 -0.1570042E+01  0.2824365E-06  0.1889419E+01  0.2083186E+01 -0.3000967E+01  0.5188194E-06 -0.2182699E+01  0.1303287E+05 -0.1570043E+01  0.1794796E-03  0.1576137E+01
  0.4700000E+00  0.5179786E+04 -0.1570006E+01  0.5424105E-06  0.1205595E+01  0.2169241E+01 -0.3000755E+01  0.1716909E-05  0.2120426E+01  0.1331720E+05 -0.1570007E+01  0.6325680E-03  0.1572202E+01
  0.4800000E+00  0.5289397E+04 -0.1569969E+01  0.6505940E-07  0.1983207E+01  0.2256067E+01 -0.3000425E+01  0.1298514E-05 -0.2803852E+01  0.1360085E+05 -0.1569970E+01  0.1013608E-03 -0.1575665E+01
  0.4900000E+00  0.5399538E+04 -0.1569931E+01  0.2240775E-06  0.2217623E+01  0.2344894E+01 -0.3000152E+01  0.2292496E-06  0.1703214E+01  0.1388653E+05 -0.1569932E+01  0.2093927E-04 -0.1618305E+01
  0.5000000E+00  0.5509594E+04 -0.1569892E+01  0.3022368E-06 -0.1403621E+01  0.2435217E+01 -0.2999896E+01  0.2043870E-05  0.1080450E+01  0.1417201E+05 -0.1569893E+01  0.5298556E-03 -0.1570203E+01
  0.5100000E+00  0.5619405E+04 -0.1569852E+01  0.2313282E-06  0.2606024E+00  0.2526924E+01 -0.2999603E+01  0.1880761E-05 -0.2842001E+01  0.1445694E+05 -0.1569853E+01  0.2501500E-03 -0.1568847E+01
  0.5200000E+00  0.5729482E+04 -0.1569810E+01  0.3260481E-06  0.1153152E+01  0.2620632E+01 -0.2999334E+01  0.7608582E-06  0.2989223E+01  0.1474293E+05 -0.1569811E+01  0.1669287E-03  0.1566927E+01
  0.5300000E+00  0.5839663E+04 -0.1569769E+01  0.1867110E-06 -0.2642246E+01  0.2715062E+01 -0.2999069E+01  0.1364477E-05  0.2386605E+01  0.1502945E+05 -0.1569770E+01  0.5126533E-03 -0.1569790E+01
  0.5400000E+00  0.5950049E+04 -0.1569724E+01  0.1937151E-06 -0.1965587E+01  0.2811386E+01 -0.2998771E+01  0.1922576E-05  0.2029057E+00  0.1531684E+05 -0.1569726E+01  0.5611324E-03 -0.1573566E+01
  0.5500000E+00  0.6060797E+04 -0.1569679E+01  0.3870046E-06 -0.5693132E+00  0.2908254E+01 -0.2998439E+01  0.1215947E-05  0.1823949E+01  0.1560564E+05 -0.1569681E+01  0.2951879E-03  0.1572747E+01
  0.5600000E+00  0.6171729E+04 -0.1569633E+01  0.2388329E-06 -0.2295496E+01  0.3007376E+01 -0.2998181E+01  0.8579301E-06  0.7093328E+00  0.1589511E+05 -0.1569635E+01  0.5685117E-03  0.1569318E+01
  0.5700001E+00  0.6282089E+04 -0.1569586E+01  0.6420725E-06  0.1345520E+01  0.3107178E+01 -0.2997923E+01  0.1894753E-05  0.5115862E+00  0.1618251E+05 -0.1569587E+01  0.4356873E-04  0.1575698E+01
  0.5800000E+00  0.6392263E+04 -0.1569537E+01  0.3005792E-06  0.1440292E+01  0.3208776E+01 -0.2997632E+01  0.1516803E-05 -0.9449794E+00  0.1646932E+05 -0.1569539E+01  0.5575407E-03 -0.1574371E+01
  0.5900000E+00  0.6502146E+04 -0.1569487E+01  0.1852560E-06  0.1835285E+01  0.3311833E+01 -0.2997374E+01  0.1002546E-05 -0.2828068E+01  0.1675538E+05 -0.1569489E+01  0.6480888E-03  0.1571180E+01
  0.6000000E+00  0.6611919E+04 -0.1569436E+01  0.2088240E-06  0.1526183E+01  0.3416322E+01 -0.2997117E+01  0.2278331E-05  0.2818808E+01  0.1704164E+05 -0.1569438E+01  0.6431824E-04 -0.1546615E+01
  0.6100000E+00  0.6721254E+04 -0.1569384E+01  0.2462146E-06  0.1823114E+01  0.3522042E+01 -0.2996832E+01  0.1013279E-05 -0.1571715E+01  0.1732657E+05 -0.1569385E+01  0.3792390E-03 -0.1572712E+01
  0.6200000E+00  0.6831782E+04 -0.1569330E+01  0.4300734E-06  0.1815775E+01  0.3629535E+01 -0.2996591E+01  0.1120731E-05 -0.1799651E+01  0.1761557E+05 -0.1569332E+01  0.8616615E-04 -0.1572853E+01
  0.6300000E+00  0.6941640E+04 -0.1569275E+01  0.4783228E-06  0.2386488E+01  0.3737418E+01 -0.2996338E+01  0.1590499E-05  0.2602981E+01  0.1790273E+05 -0.1569276E+01  0.1392725E-04 -0.1527103E+01
  0.6400000E+00  0.7051880E+04 -0.1569218E+01  0.3916032E-06 -0.9920283E+00  0.3847307E+01 -0.2996106E+01  0.1051707E-05 -0.2824603E+01  0.1819135E+05 -0.1569220E+01  0.2648024E-03 -0.1576367E+01
  0.6500000E+00  0.7162253E+04 -0.1569160E+01  0.3734406E-06 -0.2816688E+01  0.3956373E+01 -0.2995795E+01  0.2475320E-05  0.1178552E+01  0.1848059E+05 -0.1569162E+01  0.7018701E-04  0.1542713E+01
  0.6600000E+00  0.7272260E+04 -0.1569101E+01  0.3539614E-06 -0.8598869E+00  0.4068421E+01 -0.2995539E+01  0.1607885E-05  0.2662402E+01  0.1876891E+05 -0.1569103E+01  0.1193478E-03  0.1567471E+01
  0.6700001E+00  0.7382376E+04 -0.1569040E+01  0.3090868E-06 -0.1839163E+01  0.4184336E+01 -0.2995399E+01  0.2098357E-05  0.2079317E+01  0.1905779E+05 -0.1569042E+01  0.9864625E-05 -0.1297867E+01
  0.6800001E+00  0.7492558E+04 -0.1568977E+01  0.2846863E-06  0.3036716E+01  0.4299223E+01 -0.2995147E+01  0.2432204E-05  0.2153914E+01  0.1934710E+05 -0.1568979E+01  0.4991400E-03  0.1574424E+01
  0.6900001E+00  0.7602902E+04 -0.1568913E+01  0.4850072E-06 -0.1172460E+01  0.4415006E+01 -0.2994911E+01  0.2542641E-05  0.1411201E+00  0.1963719E+05 -0.1568915E+01  0.1120404E-03  0.1567949E+01
  0.7000000E+00  0.7713457E+04 -0.1568848E+01  0.5896912E-06 -0.2107965E+01  0.4531586E+01 -0.2994637E+01  0.1030550E-05 -0.1172668E+01  0.1992826E+05 -0.1568850E+01  0.1437500E-03 -0.1576379E+01
  0.7100000E+00  0.7824183E+04 -0.1568780E+01  0.2331285E-06  0.2585437E+00  0.4649358E+01 -0.2994352E+01  0.9568196E-06  0.7496008E+00  0.2022009E+05 -0.1568783E+01  0.4027642E-04  0.1594821E+01
  0.7200000E+00  0.7935263E+04 -0.1568711E+01  0.4418044E-06 -0.1235713E+01  0.4768362E+01 -0.2994076E+01  0.1543357E-05  0.1782985E+01  0.2051328E+05 -0.1568713E+01  0.2047907E-03  0.1546596E+01
  0.7300000E+00  0.8045858E+04 -0.1568640E+01  0.4225865E-06 -0.1411445E+01  0.4888070E+01 -0.2993845E+01  0.1112143E-05 -0.2746157E+01  0.2080490E+05 -0.1568642E+01  0.2183211E-03  0.1562273E+01
  0.7400000E+00  0.8156027E+04 -0.1568567E+01  0.1126616E-05  0.1364322E+01  0.5009031E+01 -0.2993592E+01  0.1212931E-05 -0.2666270E+01  0.2109506E+05 -0.1568569E+01  0.4653574E-04 -0.1522045E+01
  0.7500000E+00  0.8266583E+04 -0.1568492E+01  0.2440563E-06 -0.2116451E+01  0.5130988E+01 -0.2993327E+01  0.1481974E-05 -0.1986086E+01  0.2138663E+05 -0.1568495E+01  0.2040179E-03  0.1583077E+01
  0.7600000E+00  0.8377060E+04 -0.1568416E+01  0.6598708E-06  0.1457645E+01  0.5254249E+01 -0.2993090E+01  0.2519132E-05  0.2767677E+01  0.2167796E+05 -0.1568419E+01  0.1530418E-03  0.1574880E+01
  0.7700000E+00  0.8486899E+04 -0.1568338E+01  0.1060498E-05  0.1271264E+01  0.5378726E+01 -0.2992838E+01  0.2642677E-05  0.7412761E+00  0.2196792E+05 -0.1568340E+01  0.1462518E-03 -0.1563038E+01
  0.7800000E+00  0.8596906E+04 -0.1568258E+01  0.2476688E-06 -0.2334921E+01  0.5504465E+01 -0.2992604E+01  0.8283328E-06  0.1350908E+01  0.2225878E+05 -0.1568260E+01  0.2517799E-03 -0.1564970E+01
  0.7900000E+00  0.8707032E+04 -0.1568175E+01  0.3317182E-06  0.2572279E+01  0.5631537E+01 -0.2992371E+01  0.1704023E-05 -0.3078151E+01  0.2255023E+05 -0.1568178E+01  0.1605737E-03 -0.1560756E+01
  0.8000000E+00  0.8817303E+04 -0.1568091E+01  0.1105727E-06  0.2572279E+01  0.5759460E+01 -0.2992091E+01  0.3960360E-05  0.1873415E+00  0.2284237E+05 -0.1568094E+01  0.2215381E-03 -0.1561281E+01
  0.8099999E+00  0.8927643E+04 -0.1568004E+01  0.4375591E-06 -0.2392323E+01  0.5887326E+01 -0.2991883E+01  0.1500293E-05  0.7414896E+00  0.2313506E+05 -0.1568007E+01  0.1210902E-03  0.1549449E+01
  0.8200001E+00  0.9037729E+04 -0.1567916E+01  0.6692264E-06 -0.1369034E+01  0.6016331E+01 -0.2991671E+01  0.1694024E-05 -0.1590027E+00  0.2342729E+05 -0.1567919E+01  0.5150468E-03  0.1561226E+01
  0.8300000E+00  0.9148264E+04 -0.1567826E+01  0.2983955E-06 -0.1520838E+01  0.6146413E+01 -0.2991456E+01  0.3890893E-05 -0.2704087E+00  0.2372126E+05 -0.1567829E+01  0.4490065E-03  0.1565383E+01
  0.8400000E+00  0.9259078E+04 -0.1567733E+01  0.5164064E-06  0.7649927E+00  0.6278674E+01 -0.2991262E+01  0.2896281E-05 -0.1822326E+01  0.2401634E+05 -0.1567736E+01  0.2036765E-03  0.1566554E+01
  0.8500000E+00  0.9369656E+04 -0.1567639E+01  0.5407833E-06 -0.2804593E+01  0.6408793E+01 -0.2990984E+01  0.1896082E-05 -0.1508868E+01  0.2431100E+05 -0.1567642E+01  0.1048309E-03  0.1607861E+01
  0.8600000E+00  0.9479902E+04 -0.1567541E+01  0.1080777E-05  0.1691731E+01  0.6543108E+01 -0.2990783E+01  0.1444000E-05 -0.2381736E+01  0.2460488E+05 -0.1567545E+01  0.1025107E-02 -0.1569695E+01
  0.8700000E+00  0.9590401E+04 -0.1567442E+01  0.1996769E-06 -0.6397698E+00  0.6676229E+01 -0.2990525E+01  0.2820850E-05  0.2824645E+01  0.2489986E+05 -0.1567446E+01  0.4903747E-05 -0.1759388E+01
  0.8800000E+00  0.9701230E+04 -0.1567340E+01  0.9027510E-06  0.2420434E+01  0.6810908E+01 -0.2990303E+01  0.3444218E-05  0.2360401E+01  0.2519617E+05 -0.1567343E+01  0.5690736E-03 -0.1567117E+01
  0.8900001E+00  0.9811491E+04 -0.1567235E+01  0.1458188E-05  0.6092609E+00  0.6945569E+01 -0.2990059E+01  0.3728939E-05  0.1181593E+00  0.2549075E+05 -0.1567239E+01  0.3211965E-03 -0.1565903E+01
  0.9000000E+00  0.9922514E+04 -0.1567128E+01  0.1087076E-05 -0.1732565E+01  0.7082259E+01 -0.2989836E+01  0.1336991E-05 -0.2984918E+01  0.2578841E+05 -0.1567132E+01  0.5075541E-03 -0.1571264E+01
  0.9100001E+00  0.1003394E+05 -0.1567018E+01  0.6620649E-06 -0.9015046E-01  0.7218562E+01 -0.2989585E+01  0.3331429E-05  0.2265535E+01  0.2608764E+05 -0.1567022E+01  0.8210680E-03  0.1572240E+01
  0.9200000E+00  0.1014573E+05 -0.1566905E+01  0.1797814E-06  0.1674589E+01  0.7357327E+01 -0.2989345E+01  0.8053695E-06 -0.2969600E+01  0.2638828E+05 -0.1566909E+01  0.5960671E-03 -0.1573420E+01
  0.9300001E+00  0.1025785E+05 -0.1566789E+01  0.1646936E-05 -0.9834211E+00  0.7493479E+01 -0.2989095E+01  0.2435101E-05  0.2886410E+01  0.2669033E+05 -0.1566793E+01  0.1117429E-03  0.1586608E+01
  0.9400001E+00  0.1036907E+05 -0.1566671E+01  0.1233853E-06  0.5041659E+00  0.7631807E+01 -0.2988881E+01  0.1205143E-05 -0.1838268E+01  0.2698934E+05 -0.1566675E+01  0.3337432E-03  0.1571395E+01
  0.9500000E+00  0.1048030E+05 -0.1566549E+01  0.6173200E-06 -0.1053147E+01  0.7770336E+01 -0.2988653E+01  0.3610212E-05 -0.2383925E+01  0.2728842E+05 -0.1566553E+01  0.1471839E-02 -0.1565373E+01
  0.9600000E+00  0.1059178E+05 -0.1566424E+01  0.5619264E-06 -0.3238470E+00  0.7908743E+01 -0.2988422E+01  0.1105057E-05  0.3111248E+01  0.2758854E+05 -0.1566428E+01  0.3197602E-03 -0.1557166E+01
  0.9700000E+00  0.1070357E+05 -0.1566296E+01  0.8186490E-06  0.7145492E+00  0.8048643E+01 -0.2988187E+01  0.1725039E-05  0.5322714E+00  0.2788979E+05 -0.1566299E+01  0.3605736E-03 -0.1575852E+01
  0.9800000E+00  0.1081447E+05 -0.1566164E+01  0.8938524E-06  0.1204221E+01  0.8188511E+01 -0.2987951E+01  0.1075603E-05  0.2545905E+01  0.2818879E+05 -0.1566168E+01  0.4089627E-03 -0.1576175E+01
  0.9900000E+00  0.1092536E+05 -0.1566030E+01  0.1272158E-05 -0.1391205E+01  0.8330023E+01 -0.2987734E+01  0.2403855E-05 -0.1600245E+01  0.2848837E+05 -0.1566034E+01  0.1011975E-03  0.1639986E+01
  0.1000000E+01  0.1103595E+05 -0.1565892E+01  0.4132218E-06  0.2694073E+01  0.8471880E+01 -0.2987475E+01  0.3180945E-05  0.2447829E+01  0.2878721E+05 -0.1565896E+01  0.3316879E-05 -0.4415612E+00
  0.1010000E+01  0.1114692E+05 -0.1565751E+01  0.4291851E-06 -0.1807354E+01  0.8614890E+01 -0.2987223E+01  0.1712841E-05 -0.8585135E+00  0.2908758E+05 -0.1565755E+01  0.1539166E-03 -0.1543257E+01
  0.1020000E+01  0.1125796E+05 -0.1565606E+01  0.1195725E-05  0.1648763E+01  0.8757719E+01 -0.2986973E+01  0.1871829E-05 -0.2777348E+01  0.2938845E+05 -0.1565611E+01  0.7026524E-03  0.1564035E+01
  0.1030000E+01  0.1137078E+05 -0.1565458E+01  0.5901029E-06 -0.6510767E+00  0.8900811E+01 -0.2986784E+01  0.3424436E-05 -0.2083601E+01  0.2969569E+05 -0.1565463E+01  0.1064485E-02  0.1568694E+01
  0.1040000E+01  0.1148231E+05 -0.1565307E+01  0.1046508E-05 -0.2117321E+01  0.9043411E+01 -0.2986582E+01  0.3508352E-05  0.2456225E+00  0.2999914E+05 -0.1565312E+01  0.1456056E-03  0.1587897E+01
  0.1050000E+01  0.1159403E+05 -0.1565152E+01  0.4214685E-06  0.7853982E+00  0.9186419E+01 -0.2986392E+01  0.5727778E-06 -0.5320538E+00  0.3030345E+05 -0.1565157E+01  0.2462855E-03  0.1591573E+01
  0.1060000E+01  0.1170608E+05 -0.1564992E+01  0.2149076E-06  0.5880026E+00  0.9329506E+01 -0.2986170E+01  0.1713521E-05 -0.1323709E+01  0.3060915E+05 -0.1564998E+01  0.9580302E-03  0.1572323E+01
  0.1070000E+01  0.1181847E+05 -0.1564830E+01  0.7177737E-06 -0.2974737E+01  0.9473815E+01 -0.2985952E+01  0.1224737E-05  0.3037989E+01  0.3091629E+05 -0.1564835E+01  0.8137153E-03  0.1574566E+01
  0.1080000E+01  0.1192914E+05 -0.1564663E+01  0.9488380E-06 -0.9555674E+00  0.9618270E+01 -0.2985756E+01  0.6333678E-06 -0.2843094E+01  0.3121814E+05 -0.1564669E+01  0.4356181E-04  0.1597069E+01
  0.1090000E+01  0.1204078E+05 -0.1564492E+01  0.1951782E-06  0.1983207E+01  0.9762905E+01 -0.2985518E+01  0.6292134E-05  0.6708575E+00  0.3152365E+05 -0.1564498E+01  0.1369627E-03  0.1663143E+01
  0.1100000E+01  0.1215278E+05 -0.1564318E+01  0.2394640E-06 -0.1477320E+01  0.9908119E+01 -0.2985309E+01  0.4148887E-05  0.1695931E+01  0.3183069E+05 -0.1564324E+01  0.5177631E-04  0.1561519E+01
  0.1110000E+01  0.1226490E+05 -0.1564138E+01  0.4436068E-06  0.3006821E+01  0.1005375E+02 -0.2985109E+01  0.4005312E-05  0.1553124E+01  0.3213840E+05 -0.1564144E+01  0.1257600E-03  0.1485431E+01
  0.1120000E+01  0.1237698E+05 -0.1563954E+01  0.1490116E-07  0.0000000E+00  0.1019923E+02 -0.2984895E+01  0.3786477E-05 -0.2119905E+01  0.3244631E+05 -0.1563960E+01  0.2396638E-04 -0.2160879E+01
  0.1130000E+01  0.1248967E+05 -0.1563765E+01  0.1852784E-05 -0.2020056E+01  0.1034256E+02 -0.2984640E+01  0.6473344E-05  0.2755102E+01  0.3275669E+05 -0.1563771E+01  0.3775973E-03 -0.1610531E+01
  0.1140000E+01  0.1260290E+05 -0.1563571E+01  0.6776752E-06 -0.1826441E+01  0.1048672E+02 -0.2984392E+01  0.1967406E-05 -0.2793792E+01  0.3306928E+05 -0.1563577E+01  0.6610120E-03 -0.1581709E+01
  0.1150000E+01  0.1271664E+05 -0.1563372E+01  0.1849906E-05 -0.1522447E+01  0.1063047E+02 -0.2984154E+01  0.7146831E-05  0.1039495E+01  0.3338391E+05 -0.1563378E+01  0.1107070E-02 -0.1561659E+01
  0.1160000E+01  0.1283092E+05 -0.1563166E+01  0.7079228E-06  0.2612003E+01  0.1077523E+02 -0.2983894E+01  0.6874658E-05  0.1631525E+01  0.3370065E+05 -0.1563172E+01  0.1435306E-02 -0.1569172E+01
  0.1170000E+01  0.1294583E+05 -0.1562957E+01  0.1548735E-05 -0.3537031E+00  0.1091828E+02 -0.2983675E+01  0.4973825E-05 -0.3038049E+01  0.3401975E+05 -0.1562963E+01  0.9692191E-03 -0.1561909E+01
  0.1180000E+01  0.1305985E+05 -0.1562741E+01  0.1685874E-05  0.1428899E+01  0.1106151E+02 -0.2983497E+01  0.1492267E-05 -0.2800500E+01  0.3433592E+05 -0.1562747E+01  0.4013274E-03 -0.1546229E+01
  0.1190000E+01  0.1317294E+05 -0.1562519E+01  0.7273003E-06  0.5140635E+00  0.1120485E+02 -0.2983292E+01  0.7521427E-05  0.1419653E+01  0.3464900E+05 -0.1562525E+01  0.8383045E-03 -0.1579567E+01
  0.1200000E+01  0.1328673E+05 -0.1562292E+01  0.1613735E-05  0.3067654E+01  0.1134660E+02 -0.2983069E+01  0.2797968E-05  0.2292131E+01  0.3496464E+05 -0.1562297E+01  0.5341334E-03 -0.1549884E+01
  0.1210000E+01  0.1340111E+05 -0.1562058E+01  0.2546311E-06 -0.1929567E+01  0.1148956E+02 -0.2982873E+01  0.1332967E-05 -0.1470015E+01  0.3528236E+05 -0.1562063E+01  0.1248574E-02  0.1571184E+01
  0.1220000E+01  0.1351596E+05 -0.1561818E+01  0.1439872E-05 -0.1456711E+01  0.1163282E+02 -0.2982657E+01  0.1061823E-04 -0.7163242E-01  0.3560177E+05 -0.1561823E+01  0.1299944E-03 -0.1620213E+01
  0.1230000E+01  0.1362917E+05 -0.1561574E+01  0.1130919E-05 -0.1249046E+01  0.1177509E+02 -0.2982417E+01  0.6746738E-05 -0.2649297E+01  0.3591733E+05 -0.1561579E+01  0.6993096E-03 -0.1588380E+01
  0.1240000E+01  0.1374257E+05 -0.1561323E+01  0.6577221E-06 -0.1491418E+01  0.1191799E+02 -0.2982171E+01  0.1969055E-05  0.2798589E+00  0.3623389E+05 -0.1561328E+01  0.3635175E-03  0.1587108E+01
  0.1250000E+01  0.1385625E+05 -0.1561065E+01  0.1059582E-05 -0.8202100E+00  0.1206113E+02 -0.2981916E+01  0.9291789E-05  0.2590516E+01  0.3655176E+05 -0.1561070E+01  0.4672148E-03 -0.1562775E+01
  0.1260000E+01  0.1397025E+05 -0.1560800E+01  0.1946656E-05  0.2765351E+01  0.1220299E+02 -0.2981619E+01  0.6010990E-05  0.2454075E+01  0.3687098E+05 -0.1560805E+01  0.6210557E-03 -0.1554788E+01
  0.1270000E+01  0.1408444E+05 -0.1560528E+01  0.2508755E-05 -0.1636179E+01  0.1234597E+02 -0.2981355E+01  0.2392205E-05  0.7677788E+00  0.3719112E+05 -0.1560533E+01  0.2901110E-03  0.1578106E+01
  0.1280000E+01  0.1419805E+05 -0.1560252E+01  0.1856511E-05 -0.1298561E+01  0.1248445E+02 -0.2981184E+01  0.7707588E-05 -0.1601734E+01  0.3750956E+05 -0.1560257E+01  0.4614492E-03  0.1594339E+01
  0.1290000E+01  0.1431239E+05 -0.1559969E+01  0.6875558E-06  0.1048962E+01  0.1262202E+02 -0.2980976E+01  0.3732808E-05  0.9213073E+00  0.3783150E+05 -0.1559975E+01  0.1076885E-02 -0.1554362E+01
  0.1300000E+01  0.1442739E+05 -0.1559680E+01  0.1081567E-05  0.3369999E+00  0.1276044E+02 -0.2980807E+01  0.1669595E-05 -0.8612019E+00  0.3815591E+05 -0.1559686E+01  0.8328463E-03 -0.1598932E+01
  0.1310000E+01  0.1454296E+05 -0.1559381E+01  0.5901029E-06  0.2490516E+01  0.1290130E+02 -0.2980688E+01  0.4915379E-05 -0.1713765E+01  0.3848261E+05 -0.1559387E+01  0.1001581E-02 -0.1573297E+01
  0.1320000E+01  0.1465891E+05 -0.1559075E+01  0.1523001E-05 -0.1176803E+00  0.1304010E+02 -0.2980534E+01  0.6764103E-05 -0.8107141E+00  0.3881088E+05 -0.1559082E+01  0.1241026E-02 -0.1575331E+01
  0.1330000E+01  0.1477444E+05 -0.1558761E+01  0.7233205E-06 -0.7197990E+00  0.1317679E+02 -0.2980336E+01  0.2076361E-05  0.4411795E+00  0.3913802E+05 -0.1558769E+01  0.4686974E-03  0.1547205E+01
  0.1340000E+01  0.1488961E+05 -0.1558442E+01  0.1597416E-05 -0.6397698E+00  0.1330900E+02 -0.2980083E+01  0.6959600E-05 -0.2459328E+01  0.3946490E+05 -0.1558450E+01  0.1125559E-02 -0.1571469E+01
  0.1350000E+01  0.1500468E+05 -0.1558115E+01  0.9636628E-06 -0.2827177E+01  0.1345169E+02 -0.2979977E+01  0.3828482E-05  0.2037055E+01  0.3979182E+05 -0.1558122E+01  0.4452327E-03 -0.1539576E+01
  0.1360000E+01  0.1512032E+05 -0.1557779E+01  0.6563281E-06 -0.1616220E+01  0.1358436E+02 -0.2979750E+01  0.9107930E-05  0.1543798E+01  0.4012098E+05 -0.1557787E+01  0.2753743E-03  0.1651772E+01
  0.1370000E+01  0.1523665E+05 -0.1557434E+01  0.1696656E-05  0.1389765E+01  0.1371961E+02 -0.2979551E+01  0.1036414E-05 -0.1444658E+01  0.4045278E+05 -0.1557442E+01  0.4652829E-04 -0.1449450E+01
  0.1380000E+01  0.1535336E+05 -0.1557078E+01  0.8836088E-06 -0.1905879E+01  0.1385401E+02 -0.2979352E+01  0.2755809E-05  0.1120449E+01  0.4078631E+05 -0.1557086E+01  0.7583237E-03 -0.1559510E+01
  0.1390000E+01  0.1547023E+05 -0.1556713E+01  0.9225492E-06  0.2598403E+01  0.1397728E+02 -0.2979066E+01  0.6782275E-05 -0.6584418E+00  0.4112102E+05 -0.1556721E+01  0.2614780E-03  0.1565518E+01
  0.1400000E+01  0.1558806E+05 -0.1556341E+01  0.1275791E-05 -0.1206558E+01  0.1410863E+02 -0.2978839E+01  0.5769357E-05  0.2929507E+01  0.4145937E+05 -0.1556349E+01  0.7235703E-04 -0.1614080E+01
  0.1410000E+01  0.1570605E+05 -0.1555958E+01  0.1377693E-05 -0.8926770E+00  0.1423711E+02 -0.2978603E+01  0.6327953E-05  0.1011698E+01  0.4179867E+05 -0.1555966E+01  0.2016434E-02 -0.1552947E+01
  0.1420000E+01  0.1582581E+05 -0.1555563E+01  0.2211455E-06 -0.2572279E+01  0.1436329E+02 -0.2978354E+01  0.3963716E-05  0.1288882E+01  0.4214410E+05 -0.1555570E+01  0.7327441E-03  0.1595598E+01
  0.1430000E+01  0.1594624E+05 -0.1555157E+01  0.1777694E-05 -0.7349958E+00  0.1448841E+02 -0.2978108E+01  0.3736338E-05 -0.2009471E+01  0.4249210E+05 -0.1555164E+01  0.4062924E-03  0.1564307E+01
  0.1440000E+01  0.1606725E+05 -0.1554742E+01  0.1332800E-06  0.1107149E+01  0.1461215E+02 -0.2977955E+01  0.4427689E-05  0.2198479E+01  0.4284248E+05 -0.1554749E+01  0.4298452E-03 -0.1538896E+01
  0.1450000E+01  0.1618578E+05 -0.1554316E+01  0.1735985E-05  0.1103310E+01  0.1473306E+02 -0.2977773E+01  0.6671532E-05  0.3110318E+01  0.4318421E+05 -0.1554322E+01  0.6764832E-03 -0.1571575E+01
  0.1460000E+01  0.1630440E+05 -0.1553878E+01  0.1238344E-05 -0.2093674E+01  0.1485608E+02 -0.2977617E+01  0.6872832E-05  0.3110150E+01  0.4352641E+05 -0.1553883E+01  0.5806754E-03  0.1559547E+01
  0.1470000E+01  0.1642359E+05 -0.1553427E+01  0.1431210E-05 -0.1602036E+01  0.1497764E+02 -0.2977465E+01  0.5123509E-05 -0.2352596E+01  0.4387062E+05 -0.1553432E+01  0.6099801E-03 -0.1529844E+01
  0.1480000E+01  0.1654382E+05 -0.1552963E+01  0.1549792E-05 -0.1580411E+01  0.1509209E+02 -0.2977217E+01  0.8720099E-05  0.8367746E+00  0.4421835E+05 -0.1552967E+01  0.4440460E-04  0.1803678E+01
  0.1490000E+01  0.1666493E+05 -0.1552490E+01  0.3705119E-06 -0.1306308E+01  0.1520822E+02 -0.2976960E+01  0.7619396E-05 -0.1329375E+01  0.4456918E+05 -0.1552493E+01  0.3881152E-03  0.1582293E+01
  0.1500000E+01  0.1678128E+05 -0.1552009E+01  0.1196578E-05  0.9223139E+00  0.1532646E+02 -0.2976733E+01  0.5976020E-05  0.1282564E+01  0.4490661E+05 -0.1552013E+01  0.8243104E-03 -0.1601333E+01
  0.1510000E+01  0.1689894E+05 -0.1551515E+01  0.1346145E-05 -0.4586971E+00  0.1544098E+02 -0.2976447E+01  0.4167222E-05 -0.1188796E+01  0.4524888E+05 -0.1551518E+01  0.3754864E-03 -0.1625880E+01
  0.1520000E+01  0.1701776E+05 -0.1551007E+01  0.1025477E-05 -0.2191046E+01  0.1555427E+02 -0.2976152E+01  0.5133618E-05  0.1841122E+01  0.4559559E+05 -0.1551009E+01  0.5820827E-03 -0.1595748E+01
  0.1530000E+01  0.1713687E+05 -0.1550485E+01  0.9353373E-06  0.3923402E+00  0.1566866E+02 -0.2975838E+01  0.4389627E-05 -0.9123583E+00  0.4594361E+05 -0.1550487E+01  0.6051429E-03  0.1558236E+01
  0.1540000E+01  0.1725633E+05 -0.1549948E+01  0.1013389E-05 -0.6287963E+00  0.1577927E+02 -0.2975466E+01  0.7999943E-05 -0.1876348E+01  0.4629298E+05 -0.1549950E+01  0.4284127E-03  0.1469530E+01
  0.1550000E+01  0.1737554E+05 -0.1549406E+01  0.1157313E-05  0.2934096E+01  0.1588619E+02 -0.2975333E+01  0.5098942E-05 -0.1087543E+01  0.4664201E+05 -0.1549409E+01  0.2251489E-03 -0.1582203E+01
  0.1560000E+01  0.1749544E+05 -0.1548852E+01  0.1109611E-05  0.1828804E+01  0.1599171E+02 -0.2975211E+01  0.7299262E-05  0.2271285E+01  0.4699443E+05 -0.1548854E+01  0.5574446E-03  0.1438030E+01
  0.1570000E+01  0.1761601E+05 -0.1548286E+01  0.6447228E-06  0.2553590E+01  0.1609373E+02 -0.2975061E+01  0.2711308E-05  0.2147748E+01  0.4734980E+05 -0.1548288E+01  0.4599284E-03 -0.1584794E+01
  0.1580000E+01  0.1773674E+05 -0.1547704E+01  0.2626031E-05  0.1621888E+01  0.1619807E+02 -0.2974958E+01  0.9537701E-05  0.2917077E+01  0.4770620E+05 -0.1547706E+01  0.1995173E-03 -0.1531896E+01
  0.1590000E+01  0.1785789E+05 -0.1547106E+01  0.1499104E-05 -0.2222250E+01  0.1630633E+02 -0.2974927E+01  0.1119103E-04  0.5538357E+00  0.4806397E+05 -0.1547109E+01  0.7916580E-03 -0.1589477E+01
  0.1600000E+01  0.1798070E+05 -0.1546492E+01  0.1415846E-05 -0.8598869E+00  0.1640296E+02 -0.2974768E+01  0.7884109E-05 -0.2433786E+01  0.4842796E+05 -0.1546495E+01  0.1136924E-02  0.1562030E+01
  0.1610000E+01  0.1810426E+05 -0.1545865E+01  0.2030061E-05 -0.1512040E+01  0.1648741E+02 -0.2974449E+01  0.8610128E-05  0.1163291E+01  0.4879561E+05 -0.1545868E+01  0.4962671E-03 -0.1501287E+01
  0.1620000E+01  0.1822487E+05 -0.1545231E+01  0.1820688E-05  0.1760166E+01  0.1658367E+02 -0.2974277E+01  0.2569600E-05 -0.2895559E+01  0.4915411E+05 -0.1545235E+01  0.1211352E-02  0.1555742E+01
  0.1630000E+01  0.1834501E+05 -0.1544580E+01  0.1772174E-05 -0.1227772E+01  0.1667957E+02 -0.2974078E+01  0.3656786E-05 -0.1790570E+01  0.4951139E+05 -0.1544584E+01  0.3153167E-03  0.1522624E+01
  0.1640000E+01  0.1846669E+05 -0.1543912E+01  0.1482048E-05  0.1306308E+01  0.1676743E+02 -0.2973849E+01  0.1542088E-04 -0.5569093E+00  0.4987442E+05 -0.1543916E+01  0.3044764E-03 -0.1655678E+01
  0.1650000E+01  0.1858921E+05 -0.1543226E+01  0.8720681E-06 -0.1276066E+01  0.1685921E+02 -0.2973647E+01  0.4258898E-05 -0.7529598E-01  0.5024057E+05 -0.1543230E+01  0.8039983E-03 -0.1519885E+01