VARIABLES="w (rad/s)"
"abs(F   1   1)" "angle(F   1   1)"
"abs(F   1   2)" "angle(F   1   2)"
"abs(F   1   3)" "angle(F   1   3)"
"abs(F   1   4)" "angle(F   1   4)"
"abs(F   1   5)" "angle(F   1   5)"
"abs(F   1   6)" "angle(F   1   6)"
Zone t="Diffraction force - beta =   0.000 deg",I=  2986,F=POINT
  0.1500000E+00  0.1739588E+04 -0.1570716E+01  0.3585983E-03 -0.4155392E-04  0.1524277E+04 -0.2059161E-04  0.9239014E-02 -0.3141592E+01  0.4448713E+04 -0.1570712E+01  0.1228125E-03  0.8731547E-01
  0.1600000E+00  0.1858326E+04 -0.1570730E+01  0.4235008E-03 -0.3141579E+01  0.1523157E+04 -0.2343814E-04  0.4219758E-03 -0.3141364E+01  0.4754710E+04 -0.1570718E+01  0.2445938E-03  0.3117169E+01
  0.1700000E+00  0.1975456E+04 -0.1570715E+01  0.6904430E-03 -0.4586182E-04  0.1521967E+04 -0.2644524E-04  0.3368883E-02  0.2626261E-04  0.5055565E+04 -0.1570702E+01  0.1530735E-02  0.3059379E+01
  0.1800000E+00  0.2092450E+04 -0.1570680E+01  0.3586204E-03 -0.3141566E+01  0.1520704E+04 -0.2970212E-04  0.1855691E-01 -0.3387648E-05  0.5356233E+04 -0.1570688E+01  0.4882016E-03  0.3129287E+01
  0.1900000E+00  0.2208250E+04 -0.1570686E+01  0.1682265E-02 -0.2657339E-04  0.1519365E+04 -0.3309096E-04  0.1730835E-03  0.1670730E-02  0.5652384E+04 -0.1570677E+01  0.2600352E-03  0.3439175E+00
  0.2000000E+00  0.2323832E+04 -0.1570686E+01  0.5342301E-04  0.3140826E+01  0.1517958E+04 -0.3671496E-04  0.6995323E-02 -0.2729268E-04  0.5948003E+04 -0.1570662E+01  0.3801531E-03 -0.2879542E+01
  0.2100000E+00  0.2439793E+04 -0.1570657E+01  0.1277899E-02 -0.1545039E-03  0.1516481E+04 -0.4047886E-04  0.1989977E-01 -0.3141570E+01  0.6245077E+04 -0.1570649E+01  0.1346632E-02  0.3057432E+01
  0.2200000E+00  0.2555830E+04 -0.1570640E+01  0.8277437E-03  0.1080129E-03  0.1514930E+04 -0.4448185E-04  0.3321365E-02 -0.1402014E-05  0.6542600E+04 -0.1570649E+01  0.3359106E-03  0.4350895E+00
  0.2300000E+00  0.2672103E+04 -0.1570633E+01  0.8544675E-03 -0.3141571E+01  0.1513318E+04 -0.4865750E-04  0.1128241E-02  0.3141495E+01  0.6841060E+04 -0.1570628E+01  0.6148184E-03 -0.3013656E+01
  0.2400000E+00  0.2789023E+04 -0.1570598E+01  0.8468735E-03  0.9677524E-04  0.1511619E+04 -0.5303741E-04  0.2297333E-02 -0.3141494E+01  0.7141813E+04 -0.1570612E+01  0.3070669E-03  0.1123131E+00
  0.2500000E+00  0.2905269E+04 -0.1570605E+01  0.3166311E-03  0.3141557E+01  0.1509858E+04 -0.5759374E-04  0.3556258E-02 -0.3141528E+01  0.7439915E+04 -0.1570588E+01  0.1019839E-02  0.2850669E+01
  0.2600000E+00  0.3021133E+04 -0.1570589E+01  0.6217468E-03  0.3141335E+01  0.1508026E+04 -0.6236597E-04  0.7868846E-03  0.1538610E-04  0.7736850E+04 -0.1570582E+01  0.5160598E-03  0.3330047E+00
  0.2700000E+00  0.3137039E+04 -0.1570566E+01  0.6408248E-03  0.1860247E-03  0.1506122E+04 -0.6731394E-04  0.5210375E-02 -0.2198549E-04  0.8034188E+04 -0.1570568E+01  0.6683799E-03  0.2723228E+01
  0.2800000E+00  0.3253313E+04 -0.1570547E+01  0.6408435E-03  0.5813079E-05  0.1504149E+04 -0.7245511E-04  0.1708731E-01 -0.3141592E+01  0.8332955E+04 -0.1570536E+01  0.5595981E-03  0.2952596E+01
  0.2900000E+00  0.3369490E+04 -0.1570517E+01  0.7256696E-04  0.2156110E-02  0.1502104E+04 -0.7782047E-04  0.2591496E-01 -0.3141583E+01  0.8631514E+04 -0.1570528E+01  0.1179838E-03 -0.2113532E+01
  0.3000000E+00  0.3485510E+04 -0.1570510E+01  0.7475671E-03  0.1993287E-03  0.1499986E+04 -0.8334262E-04  0.8259495E-02  0.3141589E+01  0.8929676E+04 -0.1570507E+01  0.2893052E-03  0.2565224E+01
  0.3100000E+00  0.3601677E+04 -0.1570483E+01  0.1411337E-02  0.5543045E-04  0.1497800E+04 -0.8910458E-04  0.3475959E-02 -0.3141299E+01  0.9228467E+04 -0.1570492E+01  0.1066224E-02  0.2907970E+01
  0.3200000E+00  0.3718447E+04 -0.1570463E+01  0.3089794E-03 -0.3496461E-03  0.1495543E+04 -0.9507193E-04  0.3427237E-02 -0.3141418E+01  0.9529392E+04 -0.1570464E+01  0.4528204E-03 -0.3383387E+00
  0.3300000E+00  0.3834643E+04 -0.1570439E+01  0.1094906E-02 -0.3141558E+01  0.1493211E+04 -0.1011623E-03  0.1164832E-01 -0.3141549E+01  0.9828081E+04 -0.1570442E+01  0.1365564E-02 -0.1835725E+00
  0.3400000E+00  0.3950888E+04 -0.1570412E+01  0.1602109E-03 -0.3140500E+01  0.1490811E+04 -0.1075315E-03  0.1201677E-02  0.1162529E-03  0.1012699E+05 -0.1570416E+01  0.6859388E-03  0.2931140E+01
  0.3500000E+00  0.4066514E+04 -0.1570391E+01  0.3317065E-03 -0.3140964E+01  0.1488349E+04 -0.1140784E-03  0.5250420E-02 -0.4097492E-04  0.1042424E+05 -0.1570399E+01  0.6794374E-04  0.2693502E+01
  0.3600000E+00  0.4182379E+04 -0.1570380E+01  0.1521069E-04  0.6612688E-02  0.1485807E+04 -0.1208833E-03  0.8789170E-02  0.6135229E-04  0.1072236E+05 -0.1570375E+01  0.1283217E-02 -0.3411097E-01
  0.3700000E+00  0.4298576E+04 -0.1570347E+01  0.6875495E-04 -0.3140292E+01  0.1483200E+04 -0.1278543E-03  0.4814022E-03  0.3140643E+01  0.1102183E+05 -0.1570350E+01  0.1108290E-02 -0.1260744E+00
  0.3800000E+00  0.4414553E+04 -0.1570317E+01  0.2707104E-03 -0.3141015E+01  0.1480527E+04 -0.1350150E-03  0.8277542E-02 -0.7290773E-04  0.1132064E+05 -0.1570318E+01  0.1040425E-02 -0.6814823E-01
  0.3900000E+00  0.4530418E+04 -0.1570293E+01  0.3280352E-03 -0.8403717E-03  0.1477775E+04 -0.1424667E-03  0.1165930E-01 -0.1714982E-03  0.1161933E+05 -0.1570299E+01  0.5740423E-03  0.2131125E+01
  0.4000000E+00  0.4646406E+04 -0.1570272E+01  0.2898984E-03 -0.3084079E-03  0.1474965E+04 -0.1500771E-03  0.3451302E-02 -0.3141427E+01  0.1191854E+05 -0.1570268E+01  0.6133939E-03  0.4624740E+00
  0.4100000E+00  0.4762735E+04 -0.1570234E+01  0.4569073E-04  0.3140289E+01  0.1472079E+04 -0.1579179E-03  0.1126760E-02 -0.3140589E+01  0.1221908E+05 -0.1570240E+01  0.3815036E-03 -0.8765286E+00
  0.4200000E+00  0.4879544E+04 -0.1570216E+01  0.7640519E-04  0.5948393E-02  0.1469127E+04 -0.1660181E-03  0.4448057E-03 -0.2064462E-02  0.1252139E+05 -0.1570212E+01  0.6830223E-03 -0.2948364E+01
  0.4300000E+00  0.4995922E+04 -0.1570175E+01  0.5684709E-03  0.9174447E-04  0.1466099E+04 -0.1742725E-03  0.5890460E-02  0.6561437E-04  0.1282218E+05 -0.1570174E+01  0.1274719E-02  0.4269466E+00
  0.4400000E+00  0.5112160E+04 -0.1570149E+01  0.7706656E-03 -0.9667722E-04  0.1463009E+04 -0.1827382E-03  0.4382600E-02  0.3141572E+01  0.1312238E+05 -0.1570146E+01  0.1281957E-02  0.3131895E+01
  0.4500000E+00  0.5228284E+04 -0.1570112E+01  0.8699048E-03 -0.3141053E+01  0.1459851E+04 -0.1914711E-03  0.4730674E-02  0.1669448E-03  0.1342237E+05 -0.1570109E+01  0.4224051E-03 -0.2186491E+01
  0.4600000E+00  0.5343992E+04 -0.1570084E+01  0.4464082E-03  0.3140942E+01  0.1456623E+04 -0.2004531E-03  0.3894627E-02 -0.3141491E+01  0.1372139E+05 -0.1570077E+01  0.6322863E-03  0.2881084E+01
  0.4700000E+00  0.5459745E+04 -0.1570048E+01  0.3032822E-04  0.3124641E+01  0.1453322E+04 -0.2095211E-03  0.5474147E-02  0.2725500E-03  0.1402067E+05 -0.1570050E+01  0.9208420E-03  0.7551988E+00
  0.4800000E+00  0.5575244E+04 -0.1570012E+01  0.4043840E-03  0.3141519E+01  0.1449959E+04 -0.2189211E-03  0.1049451E-01 -0.3141548E+01  0.1431927E+05 -0.1570008E+01  0.2204313E-03 -0.2544474E+01
  0.4900000E+00  0.5691269E+04 -0.1569980E+01  0.1448236E-03  0.1389039E-02  0.1446527E+04 -0.2285185E-03  0.2727479E-02  0.1048280E-03  0.1461989E+05 -0.1569974E+01  0.3488630E-04 -0.1609562E+01
  0.5000000E+00  0.5807205E+04 -0.1569942E+01  0.5645250E-03 -0.3141064E+01  0.1443028E+04 -0.2383241E-03  0.1053803E-02  0.3139882E+01  0.1492032E+05 -0.1569937E+01  0.5573813E-03 -0.1791015E+01
  0.5100000E+00  0.5922891E+04 -0.1569898E+01  0.3545433E-03  0.3141487E+01  0.1439466E+04 -0.2484203E-03  0.1289140E-01 -0.4284059E-04  0.1522019E+05 -0.1569899E+01  0.5172350E-03 -0.2540726E+01
  0.5200000E+00  0.6038839E+04 -0.1569857E+01  0.4693402E-03  0.7302310E-03  0.1435832E+04 -0.2587706E-03  0.5051888E-02  0.3141574E+01  0.1552112E+05 -0.1569862E+01  0.2889056E-03  0.5544744E+00
  0.5300000E+00  0.6154887E+04 -0.1569824E+01  0.9171666E-04 -0.3141024E+01  0.1432126E+04 -0.2692862E-03  0.7700960E-02  0.3141468E+01  0.1582259E+05 -0.1569820E+01  0.5411347E-03 -0.1224127E+01
  0.5400000E+00  0.6271134E+04 -0.1569778E+01  0.9147844E-04 -0.2199052E-02  0.1428363E+04 -0.2801551E-03  0.2351260E-02  0.1521005E-03  0.1612492E+05 -0.1569779E+01  0.7471787E-03 -0.2397455E+01
  0.5500000E+00  0.6387740E+04 -0.1569730E+01  0.2139490E-03 -0.8009543E-03  0.1424527E+04 -0.2912591E-03  0.6774597E-02  0.1699163E-03  0.1642867E+05 -0.1569737E+01  0.4089967E-03  0.2414308E+01
  0.5600000E+00  0.6504524E+04 -0.1569692E+01  0.7704105E-03 -0.2611149E-03  0.1420627E+04 -0.3025535E-03  0.2802675E-02  0.3141375E+01  0.1673308E+05 -0.1569689E+01  0.5717379E-03  0.1354768E+01
  0.5700001E+00  0.6620732E+04 -0.1569649E+01  0.1369620E-02  0.4243115E-03  0.1416665E+04 -0.3140287E-03  0.7740719E-02  0.1239242E-03  0.1703542E+05 -0.1569648E+01  0.7318828E-03  0.3263275E-01
  0.5800000E+00  0.6736749E+04 -0.1569597E+01  0.8278285E-03  0.3510058E-03  0.1412635E+04 -0.3258758E-03  0.9930545E-02 -0.1176047E-03  0.1733717E+05 -0.1569604E+01  0.6350660E-03 -0.2074150E+01
  0.5900000E+00  0.6852470E+04 -0.1569550E+01  0.1566838E-06  0.1885028E+01  0.1408535E+04 -0.3379213E-03  0.6170749E-02 -0.4074977E-04  0.1763817E+05 -0.1569554E+01  0.7465271E-03  0.2084636E+01
  0.6000000E+00  0.6968075E+04 -0.1569502E+01  0.8393292E-04  0.2485515E-02  0.1404370E+04 -0.3502352E-03  0.5485867E-03  0.1314001E-02  0.1793937E+05 -0.1569505E+01  0.1468139E-02 -0.4523357E-01
  0.6100000E+00  0.7083238E+04 -0.1569455E+01  0.4158635E-03  0.3141073E+01  0.1400142E+04 -0.3628737E-03  0.2052308E-02 -0.3141129E+01  0.1823923E+05 -0.1569457E+01  0.1628439E-02 -0.2263456E+00
  0.6200000E+00  0.7199589E+04 -0.1569404E+01  0.1944458E-03  0.2184071E-02  0.1395848E+04 -0.3757186E-03  0.2855047E-02 -0.4002500E-03  0.1854318E+05 -0.1569406E+01  0.9768507E-03 -0.2155764E-01
  0.6300000E+00  0.7315265E+04 -0.1569355E+01  0.6328915E-03  0.5650700E-03  0.1391493E+04 -0.3887700E-03  0.3610200E-02  0.2187583E-03  0.1884528E+05 -0.1569350E+01  0.4886206E-03 -0.2916916E-01
  0.6400000E+00  0.7431315E+04 -0.1569297E+01  0.6906745E-03 -0.4314960E-03  0.1387073E+04 -0.4021129E-03  0.8787654E-03 -0.3772912E-03  0.1914883E+05 -0.1569296E+01  0.4905035E-03 -0.5190892E+00
  0.6500000E+00  0.7547496E+04 -0.1569242E+01  0.9190671E-04 -0.3140295E+01  0.1382591E+04 -0.4157329E-03  0.1801976E-02  0.3140385E+01  0.1945301E+05 -0.1569244E+01  0.1892554E-03  0.1948967E+00
  0.6600000E+00  0.7663304E+04 -0.1569187E+01  0.8750753E-04 -0.3138357E+01  0.1378042E+04 -0.4296659E-03  0.1024198E-01  0.3141535E+01  0.1975627E+05 -0.1569185E+01  0.4469833E-03  0.2906257E+00
  0.6700001E+00  0.7779217E+04 -0.1569132E+01  0.2556668E-03 -0.3140457E+01  0.1373428E+04 -0.4438140E-03  0.2656730E-03  0.3134455E+01  0.2006009E+05 -0.1569130E+01  0.6069050E-03  0.3118190E+01
  0.6800001E+00  0.7895189E+04 -0.1569067E+01  0.6297081E-03  0.3141569E+01  0.1368754E+04 -0.4583398E-03  0.2878007E-01  0.6918563E-04  0.2036434E+05 -0.1569069E+01  0.5057095E-03  0.1450804E+01
  0.6900001E+00  0.8011317E+04 -0.1569009E+01  0.3736524E-03 -0.3140416E+01  0.1364017E+04 -0.4730741E-03  0.1515044E-02  0.1979388E-03  0.2066938E+05 -0.1569009E+01  0.5118750E-03  0.2836269E+01
  0.7000000E+00  0.8127651E+04 -0.1568947E+01  0.2640674E-04 -0.2059819E-01  0.1359220E+04 -0.4881826E-03  0.2031726E-02 -0.4721415E-03  0.2097538E+05 -0.1568948E+01  0.6292848E-03 -0.2495788E+00
  0.7100000E+00  0.8244150E+04 -0.1568881E+01  0.1943242E-03  0.3141401E+01  0.1354360E+04 -0.5036350E-03  0.2141787E-01  0.3141556E+01  0.2128215E+05 -0.1568884E+01  0.2527644E-03  0.2711284E+00
  0.7200000E+00  0.8361000E+04 -0.1568817E+01  0.2274548E-04 -0.3126525E+01  0.1349438E+04 -0.5193751E-03  0.1435606E-02  0.3140563E+01  0.2159029E+05 -0.1568816E+01  0.2270432E-03  0.9757722E+00
  0.7300000E+00  0.8477355E+04 -0.1568750E+01  0.3904111E-05 -0.1070745E+00  0.1344451E+04 -0.5352193E-03  0.2658772E-02 -0.1849496E-03  0.2189685E+05 -0.1568749E+01  0.3045058E-03  0.9179739E+00
  0.7400000E+00  0.8593281E+04 -0.1568681E+01  0.1299354E-03  0.8486521E-02  0.1339409E+04 -0.5514644E-03  0.3920908E-02 -0.1624686E-03  0.2220195E+05 -0.1568679E+01  0.7148257E-04 -0.4721895E+00
  0.7500000E+00  0.8709587E+04 -0.1568612E+01  0.1791643E-03 -0.1164386E-02  0.1334302E+04 -0.5680618E-03  0.1942990E-02 -0.6394185E-03  0.2250847E+05 -0.1568610E+01  0.5382961E-03  0.4423196E+00
  0.7600000E+00  0.8825808E+04 -0.1568535E+01  0.6492814E-04  0.1078682E-01  0.1329141E+04 -0.5848934E-03  0.2197782E-02  0.3610395E-03  0.2281475E+05 -0.1568538E+01  0.1713275E-02  0.7484720E-01
  0.7700000E+00  0.8941387E+04 -0.1568466E+01  0.1376461E-03  0.7686327E-02  0.1323912E+04 -0.6021273E-03  0.5377812E-02  0.3158780E-03  0.2311965E+05 -0.1568462E+01  0.9391778E-03 -0.2914143E+01
  0.7800000E+00  0.9057125E+04 -0.1568385E+01  0.2939031E-03 -0.3140882E+01  0.1318627E+04 -0.6196387E-03  0.1177961E-01  0.3141521E+01  0.2342546E+05 -0.1568388E+01  0.5043152E-03 -0.2575120E+01
  0.7900000E+00  0.9172977E+04 -0.1568306E+01  0.3621169E-03  0.4938021E-03  0.1313281E+04 -0.6375113E-03  0.2755912E-02  0.3141588E+01  0.2373186E+05 -0.1568309E+01  0.9977343E-03 -0.2928603E+01
  0.8000000E+00  0.9288967E+04 -0.1568230E+01  0.1374222E-03  0.3141268E+01  0.1307880E+04 -0.6559052E-03  0.3944473E-02  0.2021087E-03  0.2403895E+05 -0.1568227E+01  0.9412482E-03 -0.2250333E+00
  0.8099999E+00  0.9405021E+04 -0.1568145E+01  0.6517085E-04 -0.3137248E+01  0.1302421E+04 -0.6742065E-03  0.1153146E-02  0.7785615E-03  0.2434660E+05 -0.1568147E+01  0.6910744E-03  0.2190050E+00
  0.8200001E+00  0.9520815E+04 -0.1568059E+01  0.5708962E-04 -0.3130891E+01  0.1296901E+04 -0.6928850E-03  0.2808805E-02 -0.3141495E+01  0.2465379E+05 -0.1568061E+01  0.5224716E-03  0.1325498E+01
  0.8300000E+00  0.9637050E+04 -0.1567979E+01  0.1678620E-03 -0.2130490E-02  0.1291327E+04 -0.7119334E-03  0.4200871E-02 -0.2203673E-03  0.2496271E+05 -0.1567978E+01  0.4651383E-03  0.1564033E+01
  0.8400000E+00  0.9753560E+04 -0.1567888E+01  0.6481261E-03  0.3141063E+01  0.1285693E+04 -0.7313768E-03  0.5533717E-03 -0.5308195E-02  0.2527275E+05 -0.1567887E+01  0.3634185E-03  0.5671674E+00
  0.8500000E+00  0.9869824E+04 -0.1567801E+01  0.3934242E-03 -0.3141062E+01  0.1280006E+04 -0.7512270E-03  0.6908535E-02 -0.2917235E-03  0.2558238E+05 -0.1567801E+01  0.2561863E-03  0.2884815E+01
  0.8600000E+00  0.9985754E+04 -0.1567707E+01  0.7094041E-03  0.1491368E-02  0.1274257E+04 -0.7714516E-03  0.3351782E-02 -0.3141243E+01  0.2589123E+05 -0.1567707E+01  0.1272721E-02 -0.2124881E+01
  0.8700000E+00  0.1010193E+05 -0.1567613E+01  0.4461595E-03 -0.3141292E+01  0.1268459E+04 -0.7920875E-03  0.1615828E-01  0.4726269E-04  0.2620117E+05 -0.1567615E+01  0.3665606E-03  0.3270980E-01
  0.8800000E+00  0.1021843E+05 -0.1567514E+01  0.5867857E-03  0.9649927E-03  0.1262603E+04 -0.8129976E-03  0.1869142E-02  0.1298471E-02  0.2651246E+05 -0.1567515E+01  0.6610616E-03 -0.1658447E+01
  0.8900001E+00  0.1033435E+05 -0.1567414E+01  0.7128943E-04  0.3128633E+01  0.1256693E+04 -0.8343044E-03  0.2261527E-02  0.1655482E-03  0.2682201E+05 -0.1567417E+01  0.2795132E-03 -0.1782119E+01
  0.9000000E+00  0.1045103E+05 -0.1567312E+01  0.8699267E-03 -0.3140394E+01  0.1250727E+04 -0.8560301E-03  0.4076114E-02  0.7311384E-05  0.2713465E+05 -0.1567314E+01  0.8376800E-03 -0.2501995E+01
  0.9100001E+00  0.1056810E+05 -0.1567210E+01  0.5639158E-03 -0.3141566E+01  0.1244709E+04 -0.8781623E-03  0.1601924E-02  0.3139851E+01  0.2744886E+05 -0.1567208E+01  0.7319900E-03  0.1319804E+01
  0.9200000E+00  0.1068554E+05 -0.1567102E+01  0.2060124E-03  0.3140725E+01  0.1238637E+04 -0.9008392E-03  0.4939716E-02 -0.3996998E-04  0.2776449E+05 -0.1567101E+01  0.6594773E-03 -0.1853109E+01
  0.9300001E+00  0.1080329E+05 -0.1566992E+01  0.3500420E-03 -0.3137761E+01  0.1232517E+04 -0.9235688E-03  0.9401349E-02  0.5270139E-04  0.2808153E+05 -0.1566993E+01  0.8608525E-03  0.3036907E+01
  0.9400001E+00  0.1092014E+05 -0.1566877E+01  0.1603253E-03  0.6506028E-03  0.1226341E+04 -0.9466705E-03  0.1636347E-02 -0.3140811E+01  0.2839554E+05 -0.1566879E+01  0.3871997E-03  0.2252902E+01
  0.9500000E+00  0.1103699E+05 -0.1566765E+01  0.1643382E-03 -0.2992238E-02  0.1220116E+04 -0.9702076E-03  0.1736404E-02 -0.1220736E-02  0.2870961E+05 -0.1566764E+01  0.1581840E-02 -0.1169192E+01
  0.9600000E+00  0.1115409E+05 -0.1566643E+01  0.1340472E-03 -0.1000472E-02  0.1213840E+04 -0.9940821E-03  0.8830221E-02 -0.3141578E+01  0.2902473E+05 -0.1566646E+01  0.6062453E-03 -0.6204949E+00
  0.9700000E+00  0.1127149E+05 -0.1566525E+01  0.3579635E-03  0.3140177E+01  0.1207514E+04 -0.1018514E-02  0.5747375E-02  0.1413016E-03  0.2934099E+05 -0.1566522E+01  0.4241501E-03 -0.1431304E+01
  0.9800000E+00  0.1138799E+05 -0.1566394E+01  0.1026798E-03  0.3133466E+01  0.1201137E+04 -0.1043305E-02  0.5351129E-02  0.1117351E-03  0.2965501E+05 -0.1566398E+01  0.1036017E-02 -0.2658812E+01
  0.9900000E+00  0.1150448E+05 -0.1566268E+01  0.4537233E-03 -0.3138999E+01  0.1194711E+04 -0.1068539E-02  0.1823337E-01 -0.3141468E+01  0.2996961E+05 -0.1566268E+01  0.7879845E-03  0.7127126E-01
  0.1000000E+01  0.1162065E+05 -0.1566137E+01  0.4158982E-04  0.5732648E-02  0.1188237E+04 -0.1094482E-02  0.2382694E-02  0.8262983E-03  0.3028348E+05 -0.1566137E+01  0.3696405E-03 -0.2944675E+01
  0.1010000E+01  0.1173720E+05 -0.1566004E+01  0.1067116E-03 -0.3490997E-02  0.1181715E+04 -0.1120916E-02  0.4199294E-03 -0.3138803E+01  0.3059888E+05 -0.1566003E+01  0.4809149E-03 -0.4539937E+00
  0.1020000E+01  0.1185382E+05 -0.1565870E+01  0.2364212E-03  0.5105293E-02  0.1175145E+04 -0.1147711E-02  0.2221266E-02 -0.2716906E-03  0.3091478E+05 -0.1565866E+01  0.9555352E-03  0.7838160E+00
  0.1030000E+01  0.1197221E+05 -0.1565726E+01  0.2255368E-03 -0.1717814E-02  0.1168529E+04 -0.1174491E-02  0.5615463E-02 -0.5403381E-03  0.3123706E+05 -0.1565726E+01  0.1205355E-02  0.2099381E+01
  0.1040000E+01  0.1208930E+05 -0.1565583E+01  0.2065393E-03 -0.3137480E+01  0.1161870E+04 -0.1201699E-02  0.5815918E-02  0.3141438E+01  0.3155557E+05 -0.1565583E+01  0.3103478E-03  0.2988374E+01
  0.1050000E+01  0.1220657E+05 -0.1565435E+01  0.3735424E-03  0.3140755E+01  0.1155165E+04 -0.1229280E-02  0.8349586E-03 -0.1873891E-03  0.3187493E+05 -0.1565436E+01  0.1201018E-02  0.2797942E+00
  0.1060000E+01  0.1232417E+05 -0.1565285E+01  0.2363324E-03  0.3141277E+01  0.1148413E+04 -0.1257549E-02  0.1385271E-02 -0.3140310E+01  0.3219570E+05 -0.1565284E+01  0.1041833E-02  0.1336056E+01
  0.1070000E+01  0.1244210E+05 -0.1565130E+01  0.1455190E-04 -0.1126427E-01  0.1141619E+04 -0.1286389E-02  0.2586916E-01  0.3141578E+01  0.3251791E+05 -0.1565129E+01  0.7856481E-03  0.1573790E+01
  0.1080000E+01  0.1255830E+05 -0.1564972E+01  0.1340645E-03 -0.6113243E-02  0.1134781E+04 -0.1315514E-02  0.1348069E-04 -0.3131229E+01  0.3283484E+05 -0.1564971E+01  0.6103086E-04  0.7817207E-01
  0.1090000E+01  0.1267547E+05 -0.1564808E+01  0.1030751E-03  0.3140291E+01  0.1127901E+04 -0.1345477E-02  0.3937407E-02  0.1068179E-02  0.3315543E+05 -0.1564809E+01  0.8483901E-03  0.1171272E+00
  0.1100000E+01  0.1279299E+05 -0.1564641E+01  0.4579896E-04 -0.3253608E-02  0.1120982E+04 -0.1375743E-02  0.4555745E-02  0.3140664E+01  0.3347757E+05 -0.1564643E+01  0.6811945E-03  0.2970632E+01
  0.1110000E+01  0.1291062E+05 -0.1564469E+01  0.3389272E-04  0.1318976E-02  0.1114018E+04 -0.1406471E-02  0.1334722E-01  0.2682209E-03  0.3380038E+05 -0.1564470E+01  0.9885837E-03  0.5994166E-01
  0.1120000E+01  0.1302820E+05 -0.1564296E+01  0.4005283E-03  0.3141481E+01  0.1107016E+04 -0.1437797E-02  0.8886269E-02 -0.3907120E-03  0.3412341E+05 -0.1564295E+01  0.3244880E-03  0.2938151E+01
  0.1130000E+01  0.1314639E+05 -0.1564119E+01  0.2242689E-03 -0.7574609E-02  0.1099978E+04 -0.1469700E-02  0.9834087E-02  0.3141358E+01  0.3444890E+05 -0.1564117E+01  0.3744073E-03 -0.2128356E+01
  0.1140000E+01  0.1326511E+05 -0.1563932E+01  0.8851814E-03 -0.3140869E+01  0.1092900E+04 -0.1502187E-02  0.1802387E-02 -0.3141115E+01  0.3477662E+05 -0.1563932E+01  0.1111331E-02 -0.2549677E+01
  0.1150000E+01  0.1338433E+05 -0.1563743E+01  0.1908324E-03 -0.9214168E-02  0.1085785E+04 -0.1535057E-02  0.7488510E-03  0.3133752E+01  0.3510640E+05 -0.1563743E+01  0.1163767E-02 -0.1882200E+01
  0.1160000E+01  0.1350409E+05 -0.1563547E+01  0.3617855E-03  0.1153260E-02  0.1078633E+04 -0.1568842E-02  0.8308573E-03  0.3133356E+01  0.3543828E+05 -0.1563547E+01  0.1757553E-02 -0.9376411E+00
  0.1170000E+01  0.1362447E+05 -0.1563350E+01  0.1273391E-03 -0.4329738E-02  0.1071445E+04 -0.1602539E-02  0.3436213E-03 -0.1674971E-02  0.3577254E+05 -0.1563348E+01  0.1578261E-02 -0.6767920E+00
  0.1180000E+01  0.1374395E+05 -0.1563143E+01  0.3032512E-04  0.3086531E+01  0.1064223E+04 -0.1636408E-02  0.1500631E-02 -0.4158158E-03  0.3610389E+05 -0.1563141E+01  0.6385495E-03 -0.2575278E+01
  0.1190000E+01  0.1386250E+05 -0.1562931E+01  0.3744738E-03  0.1114183E-02  0.1056965E+04 -0.1671140E-02  0.7235352E-02  0.3140548E+01  0.3643215E+05 -0.1562930E+01  0.8916947E-03 -0.1647700E+01
  0.1200000E+01  0.1398174E+05 -0.1562715E+01  0.8980632E-03  0.3141510E+01  0.1049677E+04 -0.1706412E-02  0.2376974E-02  0.3140786E+01  0.3676297E+05 -0.1562713E+01  0.7073117E-03 -0.9014068E+00
  0.1210000E+01  0.1410156E+05 -0.1562492E+01  0.3731127E-05 -0.5594156E-01  0.1042354E+04 -0.1742184E-02  0.3753558E-02 -0.3210637E-03  0.3709589E+05 -0.1562490E+01  0.1456989E-02  0.1091901E+01
  0.1220000E+01  0.1422184E+05 -0.1562263E+01  0.1415418E-02 -0.1021192E-02  0.1035002E+04 -0.1778834E-02  0.3740650E-02 -0.2688913E-03  0.3743052E+05 -0.1562261E+01  0.2508416E-03 -0.3127567E+00
  0.1230000E+01  0.1434048E+05 -0.1562032E+01  0.2708297E-04 -0.4072636E-01  0.1027619E+04 -0.1816241E-02  0.1603383E-02 -0.2141008E-02  0.3776130E+05 -0.1562030E+01  0.9776920E-03 -0.8308457E+00
  0.1240000E+01  0.1445930E+05 -0.1561794E+01  0.3051245E-03 -0.3139297E+01  0.1020204E+04 -0.1854480E-02  0.7674680E-02  0.4684110E-04  0.3809311E+05 -0.1561791E+01  0.5596894E-03  0.7169187E+00
  0.1250000E+01  0.1457839E+05 -0.1561547E+01  0.1876447E-03 -0.4367651E-02  0.1012761E+04 -0.1893545E-02  0.3287368E-02  0.3140169E+01  0.3842623E+05 -0.1561544E+01  0.5841174E-03 -0.1996517E+01
  0.1260000E+01  0.1469779E+05 -0.1561296E+01  0.1162535E-03  0.3135569E+01  0.1005292E+04 -0.1933612E-02  0.1195322E-02  0.3141498E-02  0.3876071E+05 -0.1561292E+01  0.1035678E-02 -0.2341543E+01
  0.1270000E+01  0.1481738E+05 -0.1561037E+01  0.7617021E-04 -0.3248025E-01  0.9977932E+03 -0.1974193E-02  0.6668620E-02  0.2290382E-03  0.3909612E+05 -0.1561033E+01  0.4621418E-03  0.6647702E+00
  0.1280000E+01  0.1493638E+05 -0.1560774E+01  0.5068587E-03 -0.3138035E+01  0.9902769E+03 -0.2013617E-02  0.3436436E-03 -0.3119693E+01  0.3942985E+05 -0.1560770E+01  0.4815616E-03  0.1064531E+01
  0.1290000E+01  0.1505610E+05 -0.1560506E+01  0.1109704E-03  0.5102682E-02  0.9827332E+03 -0.2054068E-02  0.5016440E-02  0.6041185E-03  0.3976709E+05 -0.1560502E+01  0.1495939E-02 -0.2378093E+01
  0.1300000E+01  0.1517648E+05 -0.1560228E+01  0.7105545E-03  0.5871928E-03  0.9751642E+03 -0.2094896E-02  0.1719580E-02 -0.3140920E+01  0.4010682E+05 -0.1560225E+01  0.1000683E-02 -0.1087688E+01
  0.1310000E+01  0.1529742E+05 -0.1559945E+01  0.1025280E-03  0.3488105E-02  0.9675708E+03 -0.2136209E-02  0.6651865E-02 -0.3140800E+01  0.4044886E+05 -0.1559942E+01  0.1502200E-02 -0.7528241E+00
  0.1320000E+01  0.1541873E+05 -0.1559653E+01  0.2821612E-04 -0.7393578E-02  0.9599587E+03 -0.2178378E-02  0.4656903E-02 -0.3140541E+01  0.4079246E+05 -0.1559651E+01  0.1218916E-02 -0.1373949E+01
  0.1330000E+01  0.1553962E+05 -0.1559353E+01  0.7101530E-05 -0.3074396E+01  0.9523280E+03 -0.2221557E-02  0.3165453E-02  0.2394907E-03  0.4113496E+05 -0.1559352E+01  0.5585644E-03  0.8292585E+00
  0.1340000E+01  0.1566014E+05 -0.1559050E+01  0.4068922E-03 -0.3139249E+01  0.9446809E+03 -0.2265528E-02  0.6287420E-02 -0.6881878E-03  0.4147722E+05 -0.1559048E+01  0.1439697E-02 -0.2155241E+01
  0.1350000E+01  0.1578054E+05 -0.1558739E+01  0.2717601E-03 -0.3140605E+01  0.9370031E+03 -0.2310083E-02  0.1148997E-02  0.3138471E+01  0.4181952E+05 -0.1558737E+01  0.1033213E-02 -0.4515335E+00
  0.1360000E+01  0.1590152E+05 -0.1558419E+01  0.2021503E-03 -0.3243390E-02  0.9293201E+03 -0.2355428E-02  0.2720602E-02  0.3138335E+01  0.4216409E+05 -0.1558418E+01  0.3328997E-03  0.2235647E+01
  0.1370000E+01  0.1602317E+05 -0.1558089E+01  0.5694033E-04  0.3111755E+01  0.9216190E+03 -0.2401679E-02  0.5296600E-02 -0.2827412E-03  0.4251130E+05 -0.1558089E+01  0.1047312E-02 -0.8300184E-01
  0.1380000E+01  0.1614520E+05 -0.1557751E+01  0.1948417E-03 -0.3137616E+01  0.9139010E+03 -0.2448666E-02  0.1004707E-02  0.2530602E-02  0.4286026E+05 -0.1557749E+01  0.6768401E-03 -0.1376580E+01
  0.1390000E+01  0.1626738E+05 -0.1557403E+01  0.2373014E-03  0.3139584E+01  0.9061808E+03 -0.2495856E-02  0.6497981E-02 -0.6558549E-03  0.4321042E+05 -0.1557400E+01  0.3313744E-03  0.2389745E+01
  0.1400000E+01  0.1639051E+05 -0.1557048E+01  0.4162582E-03 -0.2863835E-02  0.8984401E+03 -0.2544533E-02  0.3262840E-02  0.4087405E-03  0.4356423E+05 -0.1557047E+01  0.3100524E-03  0.3021787E+01
  0.1410000E+01  0.1651379E+05 -0.1556684E+01  0.4988620E-03 -0.3139621E+01  0.8906902E+03 -0.2593770E-02  0.7348461E-03  0.7627113E-02  0.4391901E+05 -0.1556680E+01  0.1975125E-02 -0.1552393E+01
  0.1420000E+01  0.1663884E+05 -0.1556307E+01  0.8584931E-03 -0.3141419E+01  0.8829304E+03 -0.2643751E-02  0.7058532E-02  0.5726318E-03  0.4427993E+05 -0.1556304E+01  0.8755553E-03  0.2025299E+01
  0.1430000E+01  0.1676455E+05 -0.1555920E+01  0.6354119E-04 -0.3123768E+01  0.8751644E+03 -0.2694465E-02  0.5358064E-02 -0.5875016E-03  0.4464345E+05 -0.1555917E+01  0.3431904E-03  0.1738973E+01
  0.1440000E+01  0.1689084E+05 -0.1555525E+01  0.3057724E-04  0.1949315E-02  0.8673885E+03 -0.2744379E-02  0.3281140E-02  0.1015584E-02  0.4500935E+05 -0.1555522E+01  0.4186482E-03 -0.1987988E+01
  0.1450000E+01  0.1701463E+05 -0.1555119E+01  0.5310276E-03  0.2974470E-02  0.8596098E+03 -0.2795208E-02  0.8730963E-03  0.2325382E-03  0.4536662E+05 -0.1555115E+01  0.6446608E-03 -0.1571613E+01
  0.1460000E+01  0.1713850E+05 -0.1554703E+01  0.2256886E-03 -0.3136442E+01  0.8518217E+03 -0.2847000E-02  0.3549621E-02  0.2571164E-04  0.4572438E+05 -0.1554697E+01  0.6604199E-03  0.2260980E+01
  0.1470000E+01  0.1726294E+05 -0.1554271E+01  0.1068647E-03 -0.3129042E+01  0.8440315E+03 -0.2899451E-02  0.5891119E-02 -0.3140974E+01  0.4608416E+05 -0.1554265E+01  0.6103467E-03 -0.1529869E+01
  0.1480000E+01  0.1738841E+05 -0.1553828E+01  0.4730103E-03 -0.3402312E-02  0.8362452E+03 -0.2953225E-02  0.3293162E-02  0.1927600E-02  0.4644748E+05 -0.1553823E+01  0.3564413E-03 -0.2709534E-02
  0.1490000E+01  0.1751475E+05 -0.1553379E+01  0.3042359E-04 -0.3127879E+01  0.8284551E+03 -0.3008587E-02  0.4951874E-02 -0.1492562E-02  0.4681392E+05 -0.1553370E+01  0.6180648E-03  0.6710282E+00
  0.1500000E+01  0.1763633E+05 -0.1552920E+01  0.6439618E-03  0.3140065E+01  0.8206603E+03 -0.3064958E-02  0.9170692E-05  0.7117988E+00  0.4716696E+05 -0.1552915E+01  0.8854692E-03 -0.1460328E+01
  0.1510000E+01  0.1775920E+05 -0.1552449E+01  0.1919430E-03 -0.3415870E-02  0.8128712E+03 -0.3122805E-02  0.3385423E-02 -0.3140342E+01  0.4752487E+05 -0.1552442E+01  0.5692136E-03 -0.7743146E+00
  0.1520000E+01  0.1788323E+05 -0.1551966E+01  0.4583606E-03 -0.3139642E+01  0.8050840E+03 -0.3181768E-02  0.3295736E-04  0.2994972E+01  0.4788724E+05 -0.1551955E+01  0.6376805E-03 -0.9839287E+00
  0.1530000E+01  0.1800754E+05 -0.1551467E+01  0.2509060E-03  0.3140168E+01  0.7972971E+03 -0.3242558E-02  0.3613970E-03 -0.3131686E+01  0.4825092E+05 -0.1551458E+01  0.6579045E-03  0.1744942E+01
  0.1540000E+01  0.1813219E+05 -0.1550956E+01  0.8092997E-04 -0.6628518E-02  0.7895205E+03 -0.3304944E-02  0.1131485E-01 -0.6650631E-03  0.4861598E+05 -0.1550946E+01  0.4748607E-03  0.1869092E+01
  0.1550000E+01  0.1825658E+05 -0.1550438E+01  0.1323825E-03  0.2926604E-02  0.7817498E+03 -0.3363079E-02  0.1333228E-02 -0.2946476E-02  0.4898070E+05 -0.1550431E+01  0.3231285E-03 -0.7246797E+00
  0.1560000E+01  0.1838165E+05 -0.1549910E+01  0.5490343E-03  0.1954129E-02  0.7739880E+03 -0.3421855E-02  0.1655047E-02  0.3138306E+01  0.4934884E+05 -0.1549901E+01  0.8322814E-03  0.6053603E+00
  0.1570000E+01  0.1850738E+05 -0.1549370E+01  0.6538654E-04  0.3138858E+01  0.7662377E+03 -0.3481624E-02  0.1909545E-02  0.3140277E+01  0.4971993E+05 -0.1549361E+01  0.4809347E-03 -0.1053822E+01
  0.1580000E+01  0.1863327E+05 -0.1548814E+01  0.2897945E-03  0.8947156E-02  0.7584925E+03 -0.3542148E-02  0.3074408E-02  0.6519006E-03  0.5009207E+05 -0.1548807E+01  0.4936294E-03 -0.2908530E+01
  0.1590000E+01  0.1875956E+05 -0.1548244E+01  0.7721166E-04 -0.3126539E+01  0.7507557E+03 -0.3603233E-02  0.5915902E-02  0.3140594E+01  0.5046560E+05 -0.1548236E+01  0.1389004E-02 -0.2577886E+01
  0.1600000E+01  0.1888751E+05 -0.1547658E+01  0.2336233E-03 -0.4975084E-02  0.7430406E+03 -0.3665681E-02  0.4587146E-02 -0.1091483E-02  0.5084535E+05 -0.1547651E+01  0.1465158E-02  0.2236866E+01
  0.1610000E+01  0.1901619E+05 -0.1547060E+01  0.4690929E-03 -0.3137272E+01  0.7353507E+03 -0.3730139E-02  0.1970709E-02  0.3137702E+01  0.5122879E+05 -0.1547052E+01  0.4512078E-03 -0.1357523E+01
  0.1620000E+01  0.1914192E+05 -0.1546457E+01  0.3055240E-03  0.3135642E+01  0.7276641E+03 -0.3795413E-02  0.2416480E-02 -0.3141433E+01  0.5160308E+05 -0.1546447E+01  0.1473925E-02  0.9877858E+00
  0.1630000E+01  0.1926716E+05 -0.1545834E+01  0.3515518E-03 -0.4577791E-02  0.7199922E+03 -0.3862585E-02  0.1172391E-02 -0.3138758E+01  0.5197617E+05 -0.1545827E+01  0.4498666E-03  0.1114632E+01
  0.1640000E+01  0.1939393E+05 -0.1545198E+01  0.2666450E-03  0.3136340E+01  0.7123452E+03 -0.3929927E-02  0.1302289E-02 -0.3135429E+01  0.5235502E+05 -0.1545189E+01  0.5040708E-03 -0.6483341E+00
  0.1650000E+01  0.1952154E+05 -0.1544544E+01  0.8748870E-04 -0.3132054E+01  0.7047117E+03 -0.3999003E-02  0.2559379E-02 -0.2692757E-03  0.5273700E+05 -0.1544535E+01  0.9050077E-03 -0.1026487E+01