VARIABLES="w (rad/s)"
"abs(F   1   1)" "angle(F   1   1)"
"abs(F   1   2)" "angle(F   1   2)"
"abs(F   1   3)" "angle(F   1   3)"
"abs(F   1   4)" "angle(F   1   4)"
"abs(F   1   5)" "angle(F   1   5)"
"abs(F   1   6)" "angle(F   1   6)"
Zone t="Diffraction force - beta =   0.000 deg",I=  2986,F=POINT
  0.1500000E+00  0.6315522E+02 -0.1570779E+01  0.5523614E-06  0.1510060E+01  0.1004743E+02 -0.3042971E+01  0.2818693E-07  0.3009041E+01  0.1123880E+02  0.1570808E+01  0.2142263E-05  0.1556450E+01
  0.1600000E+00  0.6749464E+02 -0.1570777E+01  0.3364383E-06 -0.2581233E+01  0.1135936E+02 -0.3042388E+01  0.4536029E-06  0.3075844E+01  0.1200613E+02  0.1570809E+01  0.3397466E-05 -0.1571619E+01
  0.1700000E+00  0.7166725E+02 -0.1570774E+01  0.1593697E-05  0.1785991E+00  0.1277208E+02 -0.3041925E+01  0.2098103E-06 -0.3034857E+01  0.1275865E+02  0.1570811E+01  0.1527417E-05 -0.1578723E+01
  0.1800000E+00  0.7579939E+02 -0.1570772E+01  0.9064023E-07 -0.2976444E+01  0.1429929E+02 -0.3041617E+01  0.3595098E-06  0.3131230E+01  0.1352286E+02  0.1570813E+01  0.1572232E-05 -0.1585013E+01
  0.1900000E+00  0.8012773E+02 -0.1570769E+01  0.4172491E-06 -0.5235758E+00  0.1585870E+02 -0.3041131E+01  0.1013341E-05 -0.1102897E-01  0.1427073E+02  0.1570815E+01  0.9983795E-06 -0.1568931E+01
  0.2000000E+00  0.8454116E+02 -0.1570766E+01  0.3030335E-06 -0.2382276E+01  0.1751234E+02 -0.3040688E+01  0.1723727E-06  0.3033322E+01  0.1505710E+02  0.1570817E+01  0.2905727E-05  0.1570155E+01
  0.2100000E+00  0.8890180E+02 -0.1570763E+01  0.4360340E-06 -0.1276066E+01  0.1923368E+02 -0.3040210E+01  0.1259148E-05 -0.3141592E+01  0.1582754E+02  0.1570819E+01  0.4217789E-05  0.1589787E+01
  0.2200000E+00  0.9329705E+02 -0.1570759E+01  0.1697036E-05 -0.2773316E+01  0.2104593E+02 -0.3039804E+01  0.2629168E-06  0.3013723E+01  0.1660622E+02  0.1570822E+01  0.1192238E-05  0.1586420E+01
  0.2300000E+00  0.9770047E+02 -0.1570756E+01  0.1630405E-05 -0.2920445E+01  0.2295335E+02 -0.3039481E+01  0.1628754E-05 -0.3084381E+01  0.1739025E+02  0.1570824E+01  0.6200118E-07 -0.2142134E+01
  0.2400000E+00  0.1019599E+03 -0.1570752E+01  0.1473751E-05 -0.2958574E+01  0.2496156E+02 -0.3039239E+01  0.1082255E-05 -0.3131266E+01  0.1816508E+02  0.1570826E+01  0.3233746E-05 -0.1559852E+01
  0.2500000E+00  0.1061462E+03 -0.1570748E+01  0.1923870E-05  0.3725957E+00  0.2700615E+02 -0.3038815E+01  0.7527391E-06  0.2474742E-01  0.1889420E+02  0.1570829E+01  0.9465830E-06  0.1598348E+01
  0.2600000E+00  0.1103725E+03 -0.1570744E+01  0.1492647E-05 -0.2522424E+00  0.2912959E+02 -0.3038409E+01  0.1907363E-05  0.3906230E-02  0.1964894E+02  0.1570832E+01  0.8084086E-05 -0.1563654E+01
  0.2700000E+00  0.1146495E+03 -0.1570740E+01  0.4026072E-06 -0.2251318E+01  0.3133848E+02 -0.3038038E+01  0.2402740E-06 -0.3017238E+01  0.2041853E+02  0.1570835E+01  0.1617741E-05 -0.1536248E+01
  0.2800000E+00  0.1188982E+03 -0.1570735E+01  0.3892171E-06  0.1666655E+01  0.3361046E+02 -0.3037625E+01  0.2982327E-06  0.2689118E+01  0.2117419E+02  0.1570838E+01  0.2237784E-05 -0.1522501E+01
  0.2900000E+00  0.1231874E+03 -0.1570731E+01  0.2498512E-05 -0.8957998E-01  0.3597402E+02 -0.3037258E+01  0.7227159E-06 -0.5154593E-02  0.2194415E+02  0.1570841E+01  0.4604641E-05 -0.1561897E+01
  0.3000000E+00  0.1275438E+03 -0.1570726E+01  0.2675785E-05  0.2121722E+01  0.3842661E+02 -0.3036925E+01  0.3878244E-05  0.3131026E+01  0.2272725E+02  0.1570844E+01  0.2772720E-05 -0.1599015E+01
  0.3100000E+00  0.1320220E+03 -0.1570721E+01  0.2003694E-05 -0.2466852E+01  0.4097482E+02 -0.3036632E+01  0.1505391E-05  0.2227354E-01  0.2353297E+02  0.1570848E+01  0.1952408E-05 -0.1551715E+01
  0.3200000E+00  0.1364545E+03 -0.1570716E+01  0.2855119E-05 -0.6372381E+00  0.4362177E+02 -0.3036380E+01  0.2851025E-05  0.2875025E-01  0.2433187E+02  0.1570851E+01  0.7987078E-05  0.1567065E+01
  0.3300000E+00  0.1408825E+03 -0.1570710E+01  0.1570377E-05 -0.2752276E+01  0.4628153E+02 -0.3035974E+01  0.4809233E-06  0.3102852E+01  0.2509628E+02  0.1570855E+01  0.3219073E-05  0.1554594E+01
  0.3400000E+00  0.1452470E+03 -0.1570705E+01  0.6395793E-06  0.1402496E+00  0.4902784E+02 -0.3035580E+01  0.1617617E-05  0.3224688E-01  0.2586283E+02  0.1570859E+01  0.2220286E-05 -0.1574152E+01
  0.3500000E+00  0.1496933E+03 -0.1570699E+01  0.1671323E-05  0.3838176E+00  0.5186060E+02 -0.3035218E+01  0.1482834E-05  0.3126518E+01  0.2665686E+02  0.1570863E+01  0.1298134E-05  0.1519118E+01
  0.3600000E+00  0.1540945E+03 -0.1570693E+01  0.3407979E-05  0.3667029E+00  0.5476593E+02 -0.3034842E+01  0.4299217E-05 -0.1039824E-01  0.2744067E+02  0.1570867E+01  0.1749174E-05 -0.1489777E+01
  0.3700000E+00  0.1585032E+03 -0.1570686E+01  0.1467594E-05  0.2252768E+00  0.5772559E+02 -0.3034442E+01  0.1281846E-05  0.2325162E-01  0.2822008E+02  0.1570871E+01  0.2355683E-05  0.1537581E+01
  0.3800000E+00  0.1628716E+03 -0.1570680E+01  0.2952837E-05 -0.4038208E-01  0.6078344E+02 -0.3034076E+01  0.3300641E-05 -0.3137078E+01  0.2900181E+02  0.1570876E+01  0.4768377E-05 -0.1569234E+01
  0.3900000E+00  0.1672580E+03 -0.1570673E+01  0.2425733E-06  0.1756144E+01  0.6391859E+02 -0.3033709E+01  0.2229231E-05 -0.3104820E+01  0.2979064E+02  0.1570880E+01  0.3323794E-05 -0.1593214E+01
  0.4000000E+00  0.1716773E+03 -0.1570666E+01  0.1198502E-05 -0.2470735E+01  0.6715218E+02 -0.3033373E+01  0.4026072E-06 -0.3104573E+01  0.3058535E+02  0.1570885E+01  0.2816802E-05  0.1552280E+01
  0.4100000E+00  0.1760794E+03 -0.1570659E+01  0.9243525E-06 -0.3109346E+01  0.7049570E+02 -0.3033082E+01  0.2257637E-05 -0.3131692E+01  0.3138802E+02  0.1570890E+01  0.6989424E-05 -0.1555872E+01
  0.4200000E+00  0.1804543E+03 -0.1570652E+01  0.2106763E-05 -0.3016191E+00  0.7390126E+02 -0.3032755E+01  0.4150214E-05 -0.3130821E+01  0.3218519E+02  0.1570895E+01  0.5972095E-06 -0.1508378E+01
  0.4300000E+00  0.1848368E+03 -0.1570644E+01  0.1475140E-05 -0.1712693E+01  0.7737035E+02 -0.3032396E+01  0.5856460E-05 -0.3131415E+01  0.3296606E+02  0.1570900E+01  0.1432857E-05 -0.1628025E+01
  0.4400000E+00  0.1891923E+03 -0.1570636E+01  0.6843787E-05  0.3484428E-01  0.8088609E+02 -0.3031986E+01  0.1402016E-05  0.1118309E+00  0.3372794E+02  0.1570905E+01  0.7699518E-05 -0.1518518E+01
  0.4500000E+00  0.1936103E+03 -0.1570628E+01  0.5711248E-05  0.2639637E+00  0.8447107E+02 -0.3031588E+01  0.4619360E-05 -0.3141592E+01  0.3451888E+02  0.1570911E+01  0.6480292E-06 -0.1420769E+01
  0.4600000E+00  0.1980508E+03 -0.1570619E+01  0.7838237E-05 -0.8756179E-01  0.8815269E+02 -0.3031210E+01  0.1358950E-05  0.6583876E-01  0.3532534E+02  0.1570917E+01  0.8404522E-05  0.1562818E+01
  0.4700000E+00  0.2025617E+03 -0.1570610E+01  0.3528776E-05  0.6536359E+00  0.9192059E+02 -0.3030839E+01  0.4320052E-06  0.1006713E+01  0.3613811E+02  0.1570923E+01  0.3755358E-05 -0.1558892E+01
  0.4800000E+00  0.2071509E+03 -0.1570601E+01  0.3531921E-05 -0.5505494E+00  0.9570937E+02 -0.3030417E+01  0.1528731E-05  0.1074280E+00  0.3695184E+02  0.1570929E+01  0.8285209E-05 -0.1577091E+01
  0.4900000E+00  0.2117475E+03 -0.1570592E+01  0.6932676E-05 -0.7314514E-01  0.9960768E+02 -0.3030029E+01  0.2533734E-05  0.3121007E+01  0.3777222E+02  0.1570935E+01  0.1258090E-05  0.1469949E+01
  0.5000000E+00  0.2163770E+03 -0.1570583E+01  0.3591922E-05 -0.2030733E+01  0.1035838E+03 -0.3029639E+01  0.5804175E-05  0.3133891E+01  0.3859888E+02  0.1570942E+01  0.9492227E-05  0.1564517E+01
  0.5100000E+00  0.2210269E+03 -0.1570573E+01  0.9368185E-05 -0.1083737E+00  0.1076425E+03 -0.3029249E+01  0.1438097E-05  0.1770732E+00  0.3943018E+02  0.1570948E+01  0.1275566E-04 -0.1577222E+01
  0.5200000E+00  0.2257012E+03 -0.1570563E+01  0.1765395E-05 -0.3805064E+00  0.1117842E+03 -0.3028859E+01  0.2533592E-05 -0.1764523E-01  0.4026599E+02  0.1570955E+01  0.4131177E-05 -0.1612289E+01
  0.5300000E+00  0.2303992E+03 -0.1570552E+01  0.2695587E-05  0.9966865E-01  0.1159984E+03 -0.3028453E+01  0.4008883E-05 -0.1229719E+00  0.4110652E+02  0.1570963E+01  0.1260536E-05  0.1689286E+01
  0.5400000E+00  0.2350903E+03 -0.1570542E+01  0.4910153E-05 -0.2170583E+01  0.1203506E+03 -0.3028106E+01  0.1508131E-05  0.3077325E+01  0.4195630E+02  0.1570970E+01  0.7065052E-05  0.1547594E+01
  0.5500000E+00  0.2397502E+03 -0.1570530E+01  0.8304372E-05 -0.3073354E+01  0.1247477E+03 -0.3027712E+01  0.3684566E-05  0.3040314E+01  0.4279763E+02  0.1570977E+01  0.7034122E-05  0.1555967E+01
  0.5600000E+00  0.2444332E+03 -0.1570519E+01  0.6457208E-05  0.2841736E+01  0.1292549E+03 -0.3027336E+01  0.4619384E-05  0.3138367E+01  0.4363647E+02  0.1570985E+01  0.1405773E-06  0.2582993E+01
  0.5700001E+00  0.2490620E+03 -0.1570507E+01  0.4096709E-05 -0.2995580E+01  0.1337524E+03 -0.3026859E+01  0.2636285E-06  0.2316216E+01  0.4444845E+02  0.1570993E+01  0.3849146E-05  0.1469972E+01
  0.5800000E+00  0.2536765E+03 -0.1570495E+01  0.8596303E-06  0.5880026E+00  0.1383159E+03 -0.3026385E+01  0.4667775E-06  0.1441544E+00  0.4525605E+02  0.1571002E+01  0.5545555E-06  0.1678486E+01
  0.5900000E+00  0.2583234E+03 -0.1570482E+01  0.7123004E-05 -0.8368006E-02  0.1429678E+03 -0.3025938E+01  0.7608717E-06  0.4898040E-01  0.4608899E+02  0.1571010E+01  0.3962700E-05 -0.1450173E+01
  0.6000000E+00  0.2630102E+03 -0.1570469E+01  0.2422986E-05 -0.2128092E+01  0.1477083E+03 -0.3025499E+01  0.4828442E-05 -0.3127705E+01  0.4693906E+02  0.1571019E+01  0.3933907E-05 -0.1570796E+01
  0.6100000E+00  0.2676954E+03 -0.1570456E+01  0.4833584E-05  0.8421059E+00  0.1525402E+03 -0.3025054E+01  0.9521888E-05 -0.3129880E-02  0.4778945E+02  0.1571028E+01  0.3755122E-05  0.1566828E+01
  0.6200000E+00  0.2724084E+03 -0.1570443E+01  0.8464332E-05 -0.4479009E+00  0.1574214E+03 -0.3024603E+01  0.1052655E-04 -0.3468863E-01  0.4864304E+02  0.1571038E+01  0.7201717E-05  0.1535614E+01
  0.6300000E+00  0.2770624E+03 -0.1570428E+01  0.2526351E-05  0.2842227E+01  0.1623409E+03 -0.3024137E+01  0.6990078E-05 -0.3121340E+01  0.4947831E+02  0.1571047E+01  0.8679245E-05  0.1610295E+01
  0.6400000E+00  0.2817346E+03 -0.1570414E+01  0.3463358E-05 -0.9135267E+00  0.1673711E+03 -0.3023689E+01  0.8574437E-05 -0.3824222E-01  0.5032652E+02  0.1571057E+01  0.2013643E-05  0.1526381E+01
  0.6500000E+00  0.2864352E+03 -0.1570399E+01  0.3129386E-05  0.3132069E+01  0.1724175E+03 -0.3023189E+01  0.8228683E-05 -0.2807233E-01  0.5118133E+02  0.1571067E+01  0.6571480E-05  0.1566261E+01
  0.6600000E+00  0.2911696E+03 -0.1570383E+01  0.1216168E-04  0.3121987E+01  0.1775935E+03 -0.3022721E+01  0.8271356E-05 -0.3124477E+01  0.5204185E+02  0.1571078E+01  0.9149362E-06  0.1685051E+01
  0.6700001E+00  0.2959363E+03 -0.1570368E+01  0.3355905E-05 -0.5830765E+00  0.1829323E+03 -0.3022304E+01  0.1427551E-04  0.5219159E-02  0.5290985E+02  0.1571089E+01  0.7630573E-05 -0.1553220E+01
  0.6800001E+00  0.3007307E+03 -0.1570351E+01  0.9043274E-05  0.2854239E+01  0.1882814E+03 -0.3021831E+01  0.1038611E-04  0.7173600E-03  0.5378408E+02  0.1571100E+01  0.9865480E-05  0.1584391E+01
  0.6900001E+00  0.3055674E+03 -0.1570335E+01  0.3134915E-05 -0.2076972E+01  0.1937195E+03 -0.3021357E+01  0.9334361E-06  0.2850136E+01  0.5466549E+02  0.1571111E+01  0.1297502E-04  0.1634003E+01
  0.7000000E+00  0.3104187E+03 -0.1570317E+01  0.4719035E-05 -0.4438763E+00  0.1992513E+03 -0.3020878E+01  0.1178693E-04 -0.4424750E-02  0.5556052E+02  0.1571123E+01  0.1161016E-04  0.1551543E+01
  0.7100000E+00  0.3152806E+03 -0.1570299E+01  0.2066485E-05  0.2150799E+01  0.2048767E+03 -0.3020397E+01  0.5142352E-05  0.7977222E-01  0.5645573E+02  0.1571135E+01  0.1382519E-05  0.1441094E+01
  0.7200000E+00  0.3201961E+03 -0.1570281E+01  0.6629259E-05  0.6297966E-01  0.2105970E+03 -0.3019911E+01  0.7276989E-05  0.3103701E+01  0.5735765E+02  0.1571148E+01  0.2267818E-05  0.1695966E+01
  0.7300000E+00  0.3252182E+03 -0.1570262E+01  0.1359822E-04  0.3507333E-01  0.2163550E+03 -0.3019383E+01  0.3606273E-05 -0.3131263E+01  0.5826352E+02  0.1571161E+01  0.2736058E-05  0.1489012E+01
  0.7400000E+00  0.3302578E+03 -0.1570243E+01  0.4088896E-05 -0.2106216E+01  0.2221179E+03 -0.3018790E+01  0.3437173E-05 -0.3065652E+01  0.5915300E+02  0.1571174E+01  0.2282870E-04 -0.1567533E+01
  0.7500000E+00  0.3353080E+03 -0.1570223E+01  0.7661284E-05 -0.2334207E-01  0.2279573E+03 -0.3018186E+01  0.7692522E-06  0.2591207E+01  0.6004014E+02  0.1571188E+01  0.2041699E-04 -0.1586124E+01
  0.7600000E+00  0.3404083E+03 -0.1570203E+01  0.2676906E-05 -0.1369034E+01  0.2338638E+03 -0.3017627E+01  0.7809117E-05 -0.1526599E-01  0.6094758E+02  0.1571202E+01  0.1424683E-04  0.1584394E+01
  0.7700000E+00  0.3455584E+03 -0.1570182E+01  0.1662532E-05 -0.1317122E+01  0.2398621E+03 -0.3017066E+01  0.5873345E-05 -0.2791153E-01  0.6187571E+02  0.1571216E+01  0.1743452E-04 -0.1575070E+01
  0.7800000E+00  0.3507293E+03 -0.1570160E+01  0.2155785E-04  0.2858954E+00  0.2459495E+03 -0.3016498E+01  0.1120677E-04  0.1396186E-01  0.6281323E+02  0.1571231E+01  0.7075463E-05  0.1629799E+01
  0.7900000E+00  0.3559327E+03 -0.1570138E+01  0.1525751E-04 -0.2165503E+00  0.2521335E+03 -0.3015921E+01  0.3532832E-05  0.2777203E+00  0.6375457E+02  0.1571246E+01  0.1243560E-04  0.1534841E+01
  0.8000000E+00  0.3611700E+03 -0.1570115E+01  0.1865206E-04  0.2915991E+01  0.2583811E+03 -0.3015342E+01  0.1409322E-04 -0.6136354E-01  0.6470034E+02  0.1571262E+01  0.8291529E-05  0.1531249E+01
  0.8099999E+00  0.3663972E+03 -0.1570092E+01  0.1056348E-04  0.1586553E+00  0.2646166E+03 -0.3014771E+01  0.1443067E-04  0.7079247E-01  0.6563992E+02  0.1571278E+01  0.4086832E-05 -0.1527029E+01
  0.8200001E+00  0.3715963E+03 -0.1570068E+01  0.1033243E-04 -0.6349833E-01  0.2709409E+03 -0.3014194E+01  0.2384477E-05 -0.1562373E-01  0.6657177E+02  0.1571295E+01  0.7899638E-05 -0.1593434E+01
  0.8300000E+00  0.3768334E+03 -0.1570043E+01  0.4039946E-05 -0.1193030E+01  0.2773646E+03 -0.3013615E+01  0.1731600E-04 -0.9896408E-02  0.6751932E+02  0.1571312E+01  0.5428033E-05 -0.1532354E+01
  0.8400000E+00  0.3820906E+03 -0.1570017E+01  0.1693034E-04 -0.3123989E+01  0.2839038E+03 -0.3013045E+01  0.3332001E-07 -0.4636476E+00  0.6847073E+02  0.1571329E+01  0.2431915E-04  0.1564669E+01
  0.8500000E+00  0.3874145E+03 -0.1569991E+01  0.1580344E-04 -0.5430068E+00  0.2904195E+03 -0.3012421E+01  0.2029828E-04 -0.1688533E-01  0.6943369E+02  0.1571347E+01  0.2356080E-05 -0.1892547E+01
  0.8600000E+00  0.3927185E+03 -0.1569964E+01  0.8181701E-05  0.2838273E+01  0.2971187E+03 -0.3011833E+01  0.1524984E-04  0.5230060E-01  0.7039897E+02  0.1571366E+01  0.7244172E-05 -0.1595483E+01
  0.8700000E+00  0.3980591E+03 -0.1569936E+01  0.7706537E-05 -0.2650270E+01  0.3038276E+03 -0.3011204E+01  0.3633072E-04 -0.9638751E-02  0.7137163E+02  0.1571385E+01  0.1524586E-05 -0.1649068E+01
  0.8800000E+00  0.4034419E+03 -0.1569907E+01  0.1601148E-04 -0.1645367E+00  0.3106440E+03 -0.3010578E+01  0.2837341E-05 -0.6569481E-01  0.7235156E+02  0.1571405E+01  0.6265579E-06 -0.3094010E+01
  0.8900001E+00  0.4088457E+03 -0.1569877E+01  0.7637074E-05  0.2093815E+01  0.3175537E+03 -0.3009943E+01  0.1424911E-04  0.2248575E-01  0.7333634E+02  0.1571425E+01  0.1374045E-04 -0.1555613E+01
  0.9000000E+00  0.4142527E+03 -0.1569847E+01  0.1437869E-04  0.2953953E+01  0.3246066E+03 -0.3009321E+01  0.3945292E-05  0.2951604E+01  0.7433819E+02  0.1571447E+01  0.3279881E-05 -0.1237552E+01
  0.9100001E+00  0.4196516E+03 -0.1569815E+01  0.1384022E-04  0.2499814E+01  0.3317159E+03 -0.3008672E+01  0.1973199E-04 -0.1699232E-01  0.7533943E+02  0.1571468E+01  0.5156577E-05 -0.1553457E+01
  0.9200000E+00  0.4250505E+03 -0.1569782E+01  0.6579500E-05 -0.5854900E+00  0.3389737E+03 -0.3008034E+01  0.5134483E-05  0.3019397E+01  0.7634014E+02  0.1571491E+01  0.7079981E-05 -0.1397343E+01
  0.9300001E+00  0.4305271E+03 -0.1569748E+01  0.1827308E-04  0.1012915E+00  0.3462343E+03 -0.3007345E+01  0.1374877E-04  0.3794274E-01  0.7735500E+02  0.1571514E+01  0.6798131E-05 -0.1601488E+01
  0.9400001E+00  0.4359746E+03 -0.1569714E+01  0.1113395E-04 -0.2620455E+01  0.3534918E+03 -0.3006599E+01  0.1707738E-04 -0.8725782E-02  0.7834325E+02  0.1571538E+01  0.1703092E-04 -0.1611055E+01
  0.9500000E+00  0.4414240E+03 -0.1569678E+01  0.2340854E-04  0.1379360E+00  0.3607739E+03 -0.3005793E+01  0.9746089E-05  0.3129361E+01  0.7932119E+02  0.1571562E+01  0.2121934E-04 -0.1567987E+01
  0.9600000E+00  0.4468914E+03 -0.1569641E+01  0.6387716E-05 -0.3085577E+01  0.3681125E+03 -0.3004968E+01  0.2312672E-04 -0.3138371E+01  0.8029853E+02  0.1571588E+01  0.2724167E-04 -0.1557668E+01
  0.9700000E+00  0.4524273E+03 -0.1569604E+01  0.8331442E-05 -0.1883497E+01  0.3755318E+03 -0.3004217E+01  0.4721223E-05 -0.7265669E-01  0.8129876E+02  0.1571614E+01  0.5661029E-05  0.1470604E+01
  0.9800000E+00  0.4579916E+03 -0.1569565E+01  0.3170054E-04  0.5643718E-01  0.3830197E+03 -0.3003445E+01  0.6119082E-05 -0.5603883E-01  0.8231986E+02  0.1571640E+01  0.2202410E-04 -0.1574856E+01
  0.9900000E+00  0.4636386E+03 -0.1569525E+01  0.1320979E-04 -0.1540215E+00  0.3906240E+03 -0.3002672E+01  0.1667016E-04  0.3105830E+01  0.8336307E+02  0.1571668E+01  0.3601028E-06 -0.2714965E+01
  0.1000000E+01  0.4692552E+03 -0.1569483E+01  0.1320011E-04  0.2881281E+01  0.3983284E+03 -0.3001878E+01  0.1617841E-04 -0.3085379E+01  0.8440524E+02  0.1571696E+01  0.1624926E-04 -0.1541447E+01
  0.1010000E+01  0.4749440E+03 -0.1569441E+01  0.1127915E-04  0.2751273E+01  0.4061366E+03 -0.3001065E+01  0.1509117E-04  0.3103074E+01  0.8545727E+02  0.1571726E+01  0.4544048E-05 -0.1649580E+01
  0.1020000E+01  0.4806555E+03 -0.1569397E+01  0.8120244E-05  0.2439336E+01  0.4139783E+03 -0.3000258E+01  0.6264888E-05 -0.4520727E-01  0.8651372E+02  0.1571756E+01  0.3781608E-05  0.1689286E+01
  0.1030000E+01  0.4866116E+03 -0.1569353E+01  0.6411310E-05  0.1024439E+00  0.4217537E+03 -0.2999519E+01  0.2819442E-04 -0.1004195E-01  0.8760083E+02  0.1571787E+01  0.4381854E-05  0.1550391E+01
  0.1040000E+01  0.4923698E+03 -0.1569307E+01  0.1515189E-04 -0.2409070E+01  0.4296188E+03 -0.2998750E+01  0.2118935E-04 -0.1404053E+00  0.8865044E+02  0.1571818E+01  0.4960095E-06  0.9994587E+00
  0.1050000E+01  0.4982158E+03 -0.1569260E+01  0.1221895E-04 -0.6435012E+00  0.4375790E+03 -0.2997970E+01  0.1998145E-04 -0.3104296E+01  0.8973067E+02  0.1571851E+01  0.1591455E-04  0.1567051E+01
  0.1060000E+01  0.5041432E+03 -0.1569211E+01  0.2341272E-04  0.4363196E+00  0.4456192E+03 -0.2997177E+01  0.3779729E-05 -0.9477971E+00  0.9082317E+02  0.1571884E+01  0.1648456E-04 -0.1549100E+01
  0.1070000E+01  0.5101690E+03 -0.1569161E+01  0.2516784E-04  0.2610109E+01  0.4537578E+03 -0.2996381E+01  0.8048007E-05 -0.1851640E-01  0.9193030E+02  0.1571919E+01  0.7328342E-05 -0.1485291E+01
  0.1080000E+01  0.5163654E+03 -0.1569110E+01  0.1636308E-04  0.6196437E-01  0.4619542E+03 -0.2995566E+01  0.7025277E-05  0.1211979E+00  0.9306078E+02  0.1571954E+01  0.1890175E-04 -0.1671877E+01
  0.1090000E+01  0.5226044E+03 -0.1569057E+01  0.1043354E-04 -0.1593650E+01  0.4702285E+03 -0.2994737E+01  0.6809032E-05 -0.2902983E+01  0.9420388E+02  0.1571991E+01  0.7272316E-05  0.1583091E+01
  0.1100000E+01  0.5288964E+03 -0.1569002E+01  0.5103526E-04  0.9943623E-01  0.4785834E+03 -0.2993896E+01  0.1170348E-04 -0.3081715E+01  0.9535748E+02  0.1572029E+01  0.1913980E-04  0.1544323E+01
  0.1110000E+01  0.5352429E+03 -0.1568946E+01  0.1604771E-04 -0.7223241E+00  0.4870227E+03 -0.2993042E+01  0.1116028E-04  0.1150807E+00  0.9652145E+02  0.1572068E+01  0.1371231E-05  0.2402316E+01
  0.1120000E+01  0.5416531E+03 -0.1568888E+01  0.7712068E-05  0.1493432E+01  0.4955625E+03 -0.2992177E+01  0.5852363E-05  0.4112441E+00  0.9769605E+02  0.1572108E+01  0.3588323E-04 -0.1579102E+01
  0.1130000E+01  0.5481074E+03 -0.1568828E+01  0.1489794E-04  0.3812493E+00  0.5041653E+03 -0.2991289E+01  0.1976469E-05  0.2522220E+01  0.9888725E+02  0.1572150E+01  0.1630198E-04 -0.1567140E+01
  0.1140000E+01  0.5545700E+03 -0.1568766E+01  0.2712529E-04 -0.1767089E+00  0.5128815E+03 -0.2990392E+01  0.3334965E-05 -0.5396532E+00  0.1000920E+03  0.1572192E+01  0.1045548E-04 -0.1404710E+01
  0.1150000E+01  0.5610336E+03 -0.1568702E+01  0.2218198E-04  0.8557580E+00  0.5216711E+03 -0.2989473E+01  0.7230461E-05 -0.3070432E+01  0.1012917E+03  0.1572237E+01  0.4086832E-05 -0.1527029E+01
  0.1160000E+01  0.5675389E+03 -0.1568636E+01  0.2670315E-04 -0.4464256E-02  0.5305845E+03 -0.2988543E+01  0.2519726E-04  0.3082420E+01  0.1025010E+03  0.1572283E+01  0.1125329E-04 -0.1432645E+01
  0.1170000E+01  0.5741107E+03 -0.1568568E+01  0.3502177E-04  0.2980921E+01  0.5395699E+03 -0.2987587E+01  0.1086891E-05  0.1460896E+01  0.1037231E+03  0.1572330E+01  0.5134656E-05 -0.1628870E+01
  0.1180000E+01  0.5806928E+03 -0.1568497E+01  0.1894265E-04 -0.2635717E+01  0.5484517E+03 -0.2986544E+01  0.8180185E-05  0.3082355E+01  0.1049215E+03  0.1572379E+01  0.1647228E-04  0.1686848E+01
  0.1190000E+01  0.5872697E+03 -0.1568425E+01  0.3324021E-04  0.2674737E+01  0.5573362E+03 -0.2985438E+01  0.1341130E-04  0.3135482E+01  0.1061039E+03  0.1572429E+01  0.6590627E-05 -0.1534613E+01
  0.1200000E+01  0.5938661E+03 -0.1568350E+01  0.3751306E-04  0.1306616E+00  0.5662726E+03 -0.2984242E+01  0.2508280E-04 -0.6241881E-01  0.1072846E+03  0.1572481E+01  0.7206556E-05 -0.1770625E+01
  0.1210000E+01  0.6005186E+03 -0.1568273E+01  0.2135220E-04 -0.2902030E+01  0.5752675E+03 -0.2983183E+01  0.1855400E-04 -0.3050715E+01  0.1084742E+03  0.1572535E+01  0.1539462E-04  0.1524318E+01
  0.1220000E+01  0.6072582E+03 -0.1568194E+01  0.1493926E-04  0.2406998E+01  0.5843848E+03 -0.2982116E+01  0.5486542E-05 -0.2977002E+00  0.1097058E+03  0.1572590E+01  0.2539501E-05 -0.1500325E+01
  0.1230000E+01  0.6140811E+03 -0.1568112E+01  0.1979197E-04  0.2810318E+01  0.5935466E+03 -0.2981015E+01  0.4900430E-04 -0.3122130E+01  0.1109630E+03  0.1572647E+01  0.2050712E-04  0.1588236E+01
  0.1240000E+01  0.6209457E+03 -0.1568027E+01  0.1529472E-04  0.2502768E+01  0.6028270E+03 -0.2979899E+01  0.1607382E-04  0.3030116E+01  0.1122360E+03  0.1572706E+01  0.1127032E-04  0.1719425E+01
  0.1250000E+01  0.6278672E+03 -0.1567940E+01  0.1974165E-05  0.2074962E+01  0.6122114E+03 -0.2978753E+01  0.1553227E-05  0.8600889E+00  0.1135198E+03  0.1572767E+01  0.1076602E-04  0.1370143E+01
  0.1260000E+01  0.6348411E+03 -0.1567850E+01  0.2415048E-04  0.1110460E+01  0.6216556E+03 -0.2977551E+01  0.2017000E-04  0.4840890E-01  0.1148083E+03  0.1572831E+01  0.1342177E-04  0.1530818E+01
  0.1270000E+01  0.6418644E+03 -0.1567757E+01  0.8095706E-05  0.1332960E+01  0.6312073E+03 -0.2976370E+01  0.3678273E-04  0.3122551E+01  0.1161059E+03  0.1572895E+01  0.2093812E-05  0.1656302E+01
  0.1280000E+01  0.6489285E+03 -0.1567663E+01  0.1777538E-04 -0.2973136E+01  0.6405151E+03 -0.2975338E+01  0.6158752E-04  0.2274535E-01  0.1174092E+03  0.1572961E+01  0.6928063E-05 -0.1743724E+01
  0.1290000E+01  0.6559197E+03 -0.1567565E+01  0.2180488E-04  0.2682835E+01  0.6498918E+03 -0.2974271E+01  0.6020091E-04 -0.2722766E-02  0.1186875E+03  0.1573028E+01  0.2352081E-04  0.1515017E+01
  0.1300000E+01  0.6629813E+03 -0.1567465E+01  0.4138095E-04  0.1343600E+00  0.6593936E+03 -0.2973194E+01  0.3351291E-04 -0.3111575E+01  0.1199941E+03  0.1573098E+01  0.3230770E-05 -0.2487022E+01
  0.1310000E+01  0.6701105E+03 -0.1567362E+01  0.3567830E-04 -0.1695430E+00  0.6690807E+03 -0.2972130E+01  0.3290480E-04 -0.1358612E-01  0.1213212E+03  0.1573170E+01  0.3433854E-04 -0.1589891E+01
  0.1320000E+01  0.6773174E+03 -0.1567256E+01  0.2183231E-04 -0.4734153E+00  0.6787535E+03 -0.2971026E+01  0.3046136E-04  0.3126672E+01  0.1226623E+03  0.1573244E+01  0.5986114E-05 -0.1225428E+01
  0.1330000E+01  0.6845828E+03 -0.1567147E+01  0.7634282E-05 -0.2832187E+01  0.6885031E+03 -0.2969913E+01  0.4053975E-04 -0.2058533E-01  0.1240148E+03  0.1573320E+01  0.4139091E-05  0.1278650E+01
  0.1340000E+01  0.6919152E+03 -0.1567034E+01  0.1484814E-04 -0.1002836E+01  0.6981389E+03 -0.2968738E+01  0.1307662E-04  0.2486696E+01  0.1253812E+03  0.1573399E+01  0.2989754E-05 -0.1980924E+01
  0.1350000E+01  0.6992772E+03 -0.1566917E+01  0.2521305E-04  0.1575524E+01  0.7081971E+03 -0.2967638E+01  0.6167105E-05 -0.1205097E+01  0.1267600E+03  0.1573480E+01  0.1208270E-04  0.1486836E+01
  0.1360000E+01  0.7067093E+03 -0.1566797E+01  0.1337762E-04 -0.2994025E+01  0.7179758E+03 -0.2966430E+01  0.2714218E-04  0.2689485E+00  0.1281518E+03  0.1573564E+01  0.2733289E-04 -0.1553350E+01
  0.1370000E+01  0.7142348E+03 -0.1566672E+01  0.4538404E-04 -0.2491262E+01  0.7280156E+03 -0.2965256E+01  0.3466014E-04  0.4149939E-01  0.1295611E+03  0.1573651E+01  0.2135253E-04  0.1534499E+01
  0.1380000E+01  0.7218465E+03 -0.1566544E+01  0.6755415E-04 -0.2898326E+01  0.7381381E+03 -0.2964067E+01  0.1193837E-04 -0.2710885E+01  0.1309870E+03  0.1573740E+01  0.3274053E-04 -0.1603571E+01
  0.1390000E+01  0.7295214E+03 -0.1566412E+01  0.3451191E-04 -0.2282228E+00  0.7480494E+03 -0.2962782E+01  0.1470027E-04  0.2846932E+01  0.1324307E+03  0.1573833E+01  0.4222790E-05  0.1179805E+01
  0.1400000E+01  0.7372365E+03 -0.1566275E+01  0.8726943E-05 -0.1890387E+01  0.7585544E+03 -0.2961614E+01  0.5419110E-04  0.3121931E+01  0.1339011E+03  0.1573928E+01  0.8383780E-05 -0.1699120E+01
  0.1410000E+01  0.7449316E+03 -0.1566133E+01  0.2910709E-04 -0.2837975E+01  0.7685516E+03 -0.2960268E+01  0.6427381E-04 -0.3062918E+01  0.1353681E+03  0.1574027E+01  0.3540437E-04  0.1500029E+01
  0.1420000E+01  0.7527044E+03 -0.1565987E+01  0.8677732E-04 -0.3090742E+01  0.7790843E+03 -0.2959020E+01  0.2928829E-04 -0.1172871E+00  0.1368477E+03  0.1574129E+01  0.3236554E-04  0.1631607E+01
  0.1430000E+01  0.7605248E+03 -0.1565835E+01  0.1412680E-04 -0.8182222E+00  0.7895546E+03 -0.2957708E+01  0.4331833E-04 -0.3095826E+01  0.1383400E+03  0.1574235E+01  0.3782384E-04  0.1586555E+01
  0.1440000E+01  0.7684621E+03 -0.1565679E+01  0.2628997E-04  0.1552658E+01  0.8000783E+03 -0.2956363E+01  0.4537353E-04 -0.3064833E+01  0.1398483E+03  0.1574344E+01  0.2024251E-04 -0.1345101E+01
  0.1450000E+01  0.7764257E+03 -0.1565518E+01  0.2318100E-04 -0.2952770E+01  0.8102299E+03 -0.2954865E+01  0.8297549E-04 -0.1185289E-01  0.1413113E+03  0.1574456E+01  0.1104364E-04  0.1662678E+01
  0.1460000E+01  0.7844048E+03 -0.1565353E+01  0.2739766E-04  0.2513756E+01  0.8205352E+03 -0.2953335E+01  0.1748882E-04  0.2571433E+01  0.1427678E+03  0.1574572E+01  0.5418144E-04 -0.1565296E+01
  0.1470000E+01  0.7924853E+03 -0.1565182E+01  0.4187781E-04 -0.2391427E+01  0.8309069E+03 -0.2951742E+01  0.1645797E-04  0.3642811E+00  0.1442354E+03  0.1574692E+01  0.2474454E-04 -0.1693956E+01
  0.1480000E+01  0.8007151E+03 -0.1565007E+01  0.5356439E-04 -0.2736701E+01  0.8411174E+03 -0.2950218E+01  0.1048591E-04  0.4680963E+00  0.1457246E+03  0.1574815E+01  0.5465538E-05  0.1305979E+01
  0.1490000E+01  0.8091588E+03 -0.1564826E+01  0.4836905E-04 -0.3853118E+00  0.8515335E+03 -0.2948699E+01  0.2467687E-04  0.3134950E+01  0.1472860E+03  0.1574942E+01  0.2399449E-04  0.1588186E+01
  0.1500000E+01  0.8178355E+03 -0.1564639E+01  0.2843341E-04  0.1478428E+01  0.8621290E+03 -0.2947171E+01  0.2493303E-04 -0.2828725E+01  0.1488917E+03  0.1575073E+01  0.3049919E-04  0.1543433E+01
  0.1510000E+01  0.8266519E+03 -0.1564447E+01  0.3124739E-04 -0.3111068E+01  0.8727279E+03 -0.2945592E+01  0.8625096E-05 -0.1128011E+01  0.1505314E+03  0.1575209E+01  0.5949048E-04 -0.1557771E+01
  0.1520000E+01  0.8355643E+03 -0.1564248E+01  0.1591399E-04 -0.8625164E-01  0.8834045E+03 -0.2943964E+01  0.5115815E-05  0.2068212E+00  0.1521904E+03  0.1575349E+01  0.1383033E-04  0.1588036E+01
  0.1530000E+01  0.8445453E+03 -0.1564043E+01  0.2956991E-04 -0.2015856E-01  0.8942422E+03 -0.2942296E+01  0.6369793E-05 -0.2572083E+01  0.1538585E+03  0.1575494E+01  0.2953410E-04 -0.1570796E+01
  0.1540000E+01  0.8536393E+03 -0.1563834E+01  0.1295877E-04 -0.6876712E+00  0.9050958E+03 -0.2940522E+01  0.4591274E-04 -0.3114246E+01  0.1555434E+03  0.1575643E+01  0.5344596E-05  0.1911945E+01
  0.1550000E+01  0.8628262E+03 -0.1563620E+01  0.6077476E-04 -0.3068633E+00  0.9156168E+03 -0.2939120E+01  0.2141767E-04  0.3055562E+01  0.1572429E+03  0.1575794E+01  0.3928597E-04 -0.1552589E+01
  0.1560000E+01  0.8719524E+03 -0.1563401E+01  0.6790392E-04 -0.4455891E+00  0.9261751E+03 -0.2937724E+01  0.1178199E-04 -0.2901522E+01  0.1589167E+03  0.1575948E+01  0.1252847E-04 -0.1527965E+01
  0.1570000E+01  0.8810972E+03 -0.1563176E+01  0.6678114E-05  0.2677931E-01  0.9367219E+03 -0.2936278E+01  0.1878397E-04  0.3056409E+01  0.1605892E+03  0.1576106E+01  0.1441361E-04 -0.1825805E+01
  0.1580000E+01  0.8903452E+03 -0.1562945E+01  0.7272949E-04 -0.3123562E+01  0.9474770E+03 -0.2934843E+01  0.5349380E-04 -0.3031059E+01  0.1623078E+03  0.1576269E+01  0.2254350E-04  0.1666124E+01
  0.1590000E+01  0.8995169E+03 -0.1562706E+01  0.3793970E-04 -0.1150020E+01  0.9585680E+03 -0.2933456E+01  0.5670919E-04 -0.8484330E-01  0.1640196E+03  0.1576438E+01  0.3579259E-04  0.1570796E+01
  0.1600000E+01  0.9089645E+03 -0.1562461E+01  0.5243261E-04 -0.1387892E+01  0.9692751E+03 -0.2931962E+01  0.6211618E-04 -0.1619340E-01  0.1657749E+03  0.1576611E+01  0.3019462E-05 -0.7225440E+00
  0.1610000E+01  0.9187449E+03 -0.1562212E+01  0.1372111E-04  0.2414590E+01  0.9795792E+03 -0.2930359E+01  0.2027886E-04  0.3619742E-01  0.1675818E+03  0.1576788E+01  0.2315731E-04 -0.1622297E+01
  0.1620000E+01  0.9283739E+03 -0.1561952E+01  0.2509356E-04  0.3072654E+01  0.9904540E+03 -0.2928865E+01  0.6289801E-05  0.2629719E+01  0.1693745E+03  0.1576972E+01  0.7112273E-05  0.1453198E+01
  0.1630000E+01  0.9380646E+03 -0.1561685E+01  0.7939395E-04 -0.3753736E-02  0.1001358E+04 -0.2927355E+01  0.1410044E-04  0.2765134E+01  0.1711833E+03  0.1577161E+01  0.2361164E-04 -0.1494992E+01
  0.1640000E+01  0.9478422E+03 -0.1561410E+01  0.1448883E-04  0.8523533E+00  0.1012115E+04 -0.2925786E+01  0.4866597E-05  0.2396260E+01  0.1730090E+03  0.1577356E+01  0.7441336E-05 -0.2000407E+01
  0.1650000E+01  0.9577306E+03 -0.1561127E+01  0.1940889E-04 -0.9401938E+00  0.1023096E+04 -0.2924248E+01  0.9828725E-05  0.6010380E+00  0.1748553E+03  0.1577557E+01  0.1800267E-05 -0.1233340E+01