VARIABLES="w (rad/s)"
"abs(F   1   1)" "angle(F   1   1)"
"abs(F   1   2)" "angle(F   1   2)"
"abs(F   1   3)" "angle(F   1   3)"
"abs(F   1   4)" "angle(F   1   4)"
"abs(F   1   5)" "angle(F   1   5)"
"abs(F   1   6)" "angle(F   1   6)"
Zone t="Diffraction force - beta =   0.000 deg",I=  2986,F=POINT
  0.1500000E+00  0.3249680E+02 -0.1570785E+01  0.1125724E-05 -0.2362849E+01  0.5909695E+01 -0.3038122E+01  0.2114063E-06 -0.2859000E+01  0.6226816E+01 -0.1570785E+01  0.6400433E-13 -0.1529154E+01
  0.1600000E+00  0.3477091E+02 -0.1570783E+01  0.1596589E-06  0.2045205E+01  0.6681441E+01 -0.3037534E+01  0.5740467E-06  0.2760695E+01  0.6660983E+01 -0.1570783E+01  0.3592460E-13  0.1719686E+01
  0.1700000E+00  0.3698310E+02 -0.1570782E+01  0.4559151E-06 -0.2952535E+01  0.7506230E+01 -0.3036947E+01  0.3766690E-06 -0.2104630E+01  0.7084369E+01 -0.1570781E+01  0.5068846E-13  0.1376837E+01
  0.1800000E+00  0.3915665E+02 -0.1570780E+01  0.5825959E-07 -0.1256945E+01  0.8391418E+01 -0.3036435E+01  0.1551084E-06 -0.1370089E+01  0.7502361E+01 -0.1570779E+01  0.8556068E-13  0.1487655E+01
  0.1900000E+00  0.4133477E+02 -0.1570778E+01  0.4848256E-06  0.5229583E+00  0.9312300E+01 -0.3035993E+01  0.9414516E-07  0.2026287E+01  0.7919406E+01 -0.1570778E+01  0.1464821E-13 -0.1325818E+01
  0.2000000E+00  0.4344821E+02 -0.1570776E+01  0.2641487E-06 -0.6295739E+00  0.1028879E+02 -0.3035569E+01  0.4795332E-06 -0.2765578E+01  0.8324635E+01 -0.1570776E+01  0.5684342E-13  0.1570796E+01
  0.2100000E+00  0.4562296E+02 -0.1570774E+01  0.6388863E-06 -0.2147630E+01  0.1130429E+02 -0.3035090E+01  0.7247397E-06  0.1598242E+00  0.8741477E+01 -0.1570773E+01  0.9237056E-13 -0.1570796E+01
  0.2200000E+00  0.4786081E+02 -0.1570772E+01  0.3203407E-05 -0.1975238E+00  0.1236529E+02 -0.3034609E+01  0.2021760E-06  0.1991491E+01  0.9169769E+01 -0.1570771E+01  0.3826390E-13  0.1190290E+01
  0.2300000E+00  0.5014419E+02 -0.1570769E+01  0.2079979E-05  0.3113828E+01  0.1347619E+02 -0.3034168E+01  0.5412813E-06  0.2728047E+00  0.9607450E+01 -0.1570769E+01  0.1588822E-13  0.1107149E+01
  0.2400000E+00  0.5238371E+02 -0.1570767E+01  0.3308831E-05  0.3081887E+01  0.1463846E+02 -0.3033772E+01  0.4781875E-06 -0.1255855E+00  0.1003683E+02 -0.1570766E+01  0.7944109E-14 -0.2034444E+01
  0.2500000E+00  0.5461312E+02 -0.1570764E+01  0.2081390E-05 -0.3141369E+01  0.1584717E+02 -0.3033376E+01  0.5234917E-06  0.2286635E+01  0.1046394E+02 -0.1570763E+01  0.8056517E-13 -0.1325818E+01
  0.2600000E+00  0.5684210E+02 -0.1570762E+01  0.8755763E-06 -0.2862990E+00  0.1710262E+02 -0.3032986E+01  0.7827533E-06 -0.1375958E+00  0.1089022E+02 -0.1570761E+01  0.6483094E-13  0.1405648E+01
  0.2700000E+00  0.5907963E+02 -0.1570759E+01  0.6318360E-06 -0.2376260E+01  0.1840673E+02 -0.3032614E+01  0.8045069E-06  0.2735637E+01  0.1131863E+02 -0.1570758E+01  0.1436984E-12  0.1719686E+01
  0.2800000E+00  0.6129650E+02 -0.1570756E+01  0.1446380E-05  0.3455253E+00  0.1974504E+02 -0.3032176E+01  0.4813814E-06  0.2320011E+00  0.1174197E+02 -0.1570755E+01  0.2842171E-13  0.1570796E+01
  0.2900000E+00  0.6350925E+02 -0.1570753E+01  0.4192813E-05  0.4381402E+00  0.2113058E+02 -0.3031748E+01  0.1089206E-05  0.2405783E+00  0.1216446E+02 -0.1570752E+01  0.1850483E-12  0.1628425E+01
  0.3000000E+00  0.6568954E+02 -0.1570749E+01  0.1853728E-05 -0.3636660E+00  0.2256305E+02 -0.3031330E+01  0.2419685E-05 -0.3094353E+01  0.1258158E+02 -0.1570748E+01  0.4263256E-13  0.1570796E+01
  0.3100000E+00  0.6786678E+02 -0.1570746E+01  0.9142353E-06  0.2427387E+01  0.2404589E+02 -0.3030929E+01  0.8685629E-06  0.4018691E+00  0.1299919E+02 -0.1570745E+01  0.1017342E-12 -0.1359703E+01
  0.3200000E+00  0.7005918E+02 -0.1570743E+01  0.4257386E-05  0.5201501E+00  0.2557950E+02 -0.3030552E+01  0.8240214E-06  0.2895046E+01  0.1341894E+02 -0.1570741E+01  0.7791710E-13 -0.1147942E+01
  0.3300000E+00  0.7228940E+02 -0.1570739E+01  0.7678226E-05 -0.3523255E+00  0.2715315E+02 -0.3030159E+01  0.1486485E-05 -0.3134662E+01  0.1384563E+02 -0.1570737E+01  0.7105427E-13  0.1570796E+01
  0.3400000E+00  0.7451334E+02 -0.1570735E+01  0.3228325E-05  0.1187611E+01  0.2877994E+02 -0.3029770E+01  0.3069664E-05 -0.2973825E+01  0.1427133E+02 -0.1570734E+01  0.4278034E-13  0.1653938E+01
  0.3500000E+00  0.7678558E+02 -0.1570731E+01  0.7187449E-05  0.1966534E+01  0.3045306E+02 -0.3029399E+01  0.8919933E-07  0.1826775E+01  0.1470532E+02 -0.1570730E+01  0.1651534E-12 -0.1242243E+01
  0.3600000E+00  0.7907179E+02 -0.1570727E+01  0.8004356E-05  0.3080353E+01  0.3217060E+02 -0.3029011E+01  0.2442178E-05  0.2907762E+01  0.1514287E+02 -0.1570726E+01  0.9532931E-13  0.2034444E+01
  0.3700000E+00  0.8135848E+02 -0.1570723E+01  0.9767756E-05 -0.7532455E-02  0.3391376E+02 -0.3028574E+01  0.2439601E-05  0.3045086E+01  0.1557864E+02 -0.1570721E+01  0.2274847E-13  0.6747410E+00
  0.3800000E+00  0.8364977E+02 -0.1570719E+01  0.9074721E-05  0.3064545E+01  0.3571000E+02 -0.3028155E+01  0.1620341E-05  0.2891687E+01  0.1601520E+02 -0.1570717E+01  0.5859285E-13  0.1815775E+01
  0.3900000E+00  0.8595277E+02 -0.1570714E+01  0.1469990E-04  0.3128288E+01  0.3754759E+02 -0.3027713E+01  0.2158030E-05  0.4633219E+00  0.1645382E+02 -0.1570712E+01  0.1711214E-12 -0.1487655E+01
  0.4000000E+00  0.8826962E+02 -0.1570710E+01  0.1126207E-04 -0.2818535E+01  0.3943950E+02 -0.3027298E+01  0.8631218E-06 -0.1517110E+00  0.1689538E+02 -0.1570708E+01  0.1421085E-12 -0.1570796E+01
  0.4100000E+00  0.9057049E+02 -0.1570705E+01  0.4769267E-05 -0.8265579E+00  0.4139053E+02 -0.3026913E+01  0.1183902E-05  0.4588982E+00  0.1733543E+02 -0.1570703E+01  0.1136868E-12 -0.1570796E+01
  0.4200000E+00  0.9285234E+02 -0.1570700E+01  0.4378423E-05  0.4891440E+00  0.4337135E+02 -0.3026480E+01  0.1467067E-05  0.2261937E+00  0.1777256E+02 -0.1570698E+01  0.9559375E-13  0.2303612E+01
  0.4300000E+00  0.9513242E+02 -0.1570695E+01  0.8561136E-06  0.2174036E+01  0.4541579E+02 -0.3026078E+01  0.5850784E-06  0.1342383E+01  0.1820941E+02 -0.1570692E+01  0.2323160E-12  0.1979704E+01
  0.4400000E+00  0.9739159E+02 -0.1570690E+01  0.2580125E-05 -0.1529274E+01  0.4750085E+02 -0.3025673E+01  0.4144281E-05 -0.1087830E-01  0.1864172E+02 -0.1570687E+01  0.7140866E-13  0.1670465E+01
  0.4500000E+00  0.9965652E+02 -0.1570684E+01  0.9520276E-05  0.2848538E+01  0.4962292E+02 -0.3025252E+01  0.2318838E-05  0.2682479E-01  0.1907501E+02 -0.1570681E+01  0.5123796E-13 -0.9827937E+00
  0.4600000E+00  0.1018968E+03 -0.1570679E+01  0.9312558E-05  0.3028141E+01  0.5180183E+02 -0.3024847E+01  0.1487341E-05 -0.1511482E+00  0.1950419E+02 -0.1570675E+01  0.1156680E-12  0.1385448E+01
  0.4700000E+00  0.1041319E+03 -0.1570673E+01  0.1000383E-04 -0.2905022E-01  0.5402699E+02 -0.3024438E+01  0.1462570E-05 -0.2426832E+01  0.1993318E+02 -0.1570670E+01  0.3637673E-12 -0.1354246E+01
  0.4800000E+00  0.1063755E+03 -0.1570667E+01  0.2313875E-05 -0.9840775E+00  0.5627544E+02 -0.3023989E+01  0.3123393E-06  0.2767073E+01  0.2036302E+02 -0.1570663E+01  0.1310176E-12  0.2279423E+01
  0.4900000E+00  0.1086460E+03 -0.1570660E+01  0.8451796E-05 -0.2843191E+01  0.5857458E+02 -0.3023545E+01  0.1536617E-05  0.2077096E+01  0.2079518E+02 -0.1570657E+01  0.8788928E-13 -0.1325818E+01
  0.5000000E+00  0.1109502E+03 -0.1570654E+01  0.8045266E-05  0.3943503E+00  0.6091702E+02 -0.3023089E+01  0.2010838E-05 -0.2991782E+01  0.2123335E+02 -0.1570650E+01  0.4151054E-12  0.1690905E+01
  0.5100000E+00  0.1132842E+03 -0.1570647E+01  0.5798571E-05  0.2980444E+01  0.6330581E+02 -0.3022633E+01  0.8142564E-06 -0.1266227E+01  0.2167738E+02 -0.1570643E+01  0.6070880E-13 -0.1212026E+01
  0.5200000E+00  0.1156451E+03 -0.1570641E+01  0.8203273E-05  0.1626103E+00  0.6573923E+02 -0.3022165E+01  0.9620941E-06  0.2640300E+01  0.2212655E+02 -0.1570637E+01  0.3177644E-13 -0.1107149E+01
  0.5300000E+00  0.1180276E+03 -0.1570634E+01  0.1389843E-05  0.2836689E+01  0.6821367E+02 -0.3021674E+01  0.2904976E-05  0.4570078E-01  0.2257998E+02 -0.1570629E+01  0.1694909E-12  0.2147171E+01
  0.5400000E+00  0.1204173E+03 -0.1570626E+01  0.6021102E-05  0.5798087E+00  0.7076173E+02 -0.3021233E+01  0.2551030E-05  0.2835104E+01  0.2303581E+02 -0.1570622E+01  0.3437147E-12  0.1695151E+01
  0.5500000E+00  0.1228034E+03 -0.1570619E+01  0.1412352E-04  0.2916959E+01  0.7333096E+02 -0.3020728E+01  0.2570460E-05  0.2952378E+01  0.2349113E+02 -0.1570614E+01  0.8526513E-13 -0.1570796E+01
  0.5600000E+00  0.1252128E+03 -0.1570611E+01  0.1036476E-04  0.1476850E+01  0.7597876E+02 -0.3020267E+01  0.3415523E-05 -0.2203721E-01  0.2395100E+02 -0.1570606E+01  0.9099387E-13 -0.2466852E+01
  0.5700001E+00  0.1276103E+03 -0.1570603E+01  0.4490057E-06 -0.2140389E+01  0.7865751E+02 -0.3019766E+01  0.1689747E-05 -0.3026629E+01  0.2440785E+02 -0.1570598E+01  0.1449229E-12  0.1768192E+01
  0.5800000E+00  0.1300106E+03 -0.1570595E+01  0.8806111E-05 -0.3522226E+00  0.8137661E+02 -0.3019282E+01  0.3817373E-05 -0.2815030E+01  0.2486499E+02 -0.1570590E+01  0.3280830E-12  0.1262744E+01
  0.5900000E+00  0.1324223E+03 -0.1570587E+01  0.1960068E-04 -0.4059025E+00  0.8414202E+02 -0.3018792E+01  0.2317284E-05  0.1930628E+01  0.2532381E+02 -0.1570581E+01  0.1145716E-12  0.1446441E+01
  0.6000000E+00  0.1348429E+03 -0.1570578E+01  0.2334265E-04 -0.2886357E+01  0.8696014E+02 -0.3018310E+01  0.3565571E-05 -0.2972461E+01  0.2578403E+02 -0.1570573E+01  0.5147391E-12  0.1681454E+01
  0.6100000E+00  0.1372689E+03 -0.1570570E+01  0.1294182E-04 -0.3167213E+00  0.8983127E+02 -0.3017821E+01  0.2396317E-05  0.2936308E+01  0.2624587E+02 -0.1570564E+01  0.5123796E-13 -0.5880026E+00
  0.6200000E+00  0.1397031E+03 -0.1570560E+01  0.1505244E-04 -0.2673795E+01  0.9273663E+02 -0.3017320E+01  0.5355449E-05  0.1416819E+00  0.2670981E+02 -0.1570554E+01  0.5349400E-12  0.1867342E+01
  0.6300000E+00  0.1421280E+03 -0.1570551E+01  0.1311194E-04 -0.3089861E+01  0.9566845E+02 -0.3016801E+01  0.1744230E-05 -0.2445487E+01  0.2717163E+02 -0.1570545E+01  0.3177644E-13  0.1107149E+01
  0.6400000E+00  0.1445511E+03 -0.1570541E+01  0.9131541E-05 -0.5403495E+00  0.9865318E+02 -0.3016284E+01  0.1935981E-05 -0.1814761E+01  0.2763251E+02 -0.1570535E+01  0.6310644E-12  0.1706324E+01
  0.6500000E+00  0.1469786E+03 -0.1570531E+01  0.1481299E-04  0.2399954E+01  0.1016446E+03 -0.3015705E+01  0.4128806E-05 -0.3129099E+00  0.2809450E+02 -0.1570524E+01  0.1136868E-12 -0.1570796E+01
  0.6600000E+00  0.1494174E+03 -0.1570521E+01  0.1729034E-04 -0.3933069E-01  0.1047130E+03 -0.3015159E+01  0.9248172E-05 -0.8550064E-01  0.2855842E+02 -0.1570514E+01  0.2842171E-13 -0.1570796E+01
  0.6700001E+00  0.1518639E+03 -0.1570511E+01  0.6170425E-05  0.1880614E+01  0.1078735E+03 -0.3014660E+01  0.2853940E-05  0.2853238E+01  0.2902345E+02 -0.1570503E+01  0.1421085E-13 -0.3141592E+01
  0.6800001E+00  0.1543146E+03 -0.1570500E+01  0.2663016E-04 -0.3769865E+00  0.1110365E+03 -0.3014092E+01  0.6323172E-05  0.3114028E+01  0.2948960E+02 -0.1570492E+01  0.2034685E-12 -0.1781890E+01
  0.6900001E+00  0.1567765E+03 -0.1570488E+01  0.1620725E-04  0.2967054E+01  0.1142505E+03 -0.3013518E+01  0.3276925E-05 -0.4584431E-01  0.2995811E+02 -0.1570480E+01  0.3694822E-12  0.1176005E+01
  0.7000000E+00  0.1592238E+03 -0.1570477E+01  0.2161256E-04  0.1473025E+00  0.1175134E+03 -0.3012931E+01  0.6179152E-05 -0.3013697E+01  0.3042515E+02 -0.1570468E+01  0.2049518E-12  0.5880026E+00
  0.7100000E+00  0.1616552E+03 -0.1570465E+01  0.1302404E-04  0.5104184E+00  0.1208274E+03 -0.3012334E+01  0.5295752E-05 -0.4028251E+00  0.3088946E+02 -0.1570456E+01  0.6355288E-13 -0.4636476E+00
  0.7200000E+00  0.1640840E+03 -0.1570453E+01  0.2142665E-04 -0.7736957E-02  0.1241939E+03 -0.3011726E+01  0.1302578E-05 -0.1614245E+01  0.3135364E+02 -0.1570443E+01  0.3865771E-12 -0.1272297E+01
  0.7300000E+00  0.1665242E+03 -0.1570440E+01  0.2603976E-04 -0.2930442E+01  0.1276100E+03 -0.3011098E+01  0.3184896E-05  0.3240681E+00  0.3182009E+02 -0.1570430E+01  0.4626719E-12  0.8288490E+00
  0.7400000E+00  0.1689929E+03 -0.1570427E+01  0.1063397E-04 -0.2922829E+01  0.1310696E+03 -0.3010449E+01  0.4168166E-05  0.3038995E+01  0.3228965E+02 -0.1570417E+01  0.1911875E-12 -0.8379812E+00
  0.7500000E+00  0.1714813E+03 -0.1570413E+01  0.2443699E-04  0.2641838E+01  0.1345703E+03 -0.3009834E+01  0.5755177E-05  0.6021447E-01  0.3276173E+02 -0.1570403E+01  0.4540807E-12 -0.1219352E+01
  0.7600000E+00  0.1739969E+03 -0.1570400E+01  0.2306690E-04  0.3094983E+01  0.1381173E+03 -0.3009216E+01  0.1139047E-04  0.1818509E+00  0.3323838E+02 -0.1570389E+01  0.3116684E-12 -0.1147942E+01
  0.7700000E+00  0.1765419E+03 -0.1570385E+01  0.2710754E-04 -0.3122146E+01  0.1417135E+03 -0.3008585E+01  0.3409381E-05  0.2834247E+01  0.3372052E+02 -0.1570374E+01  0.3958686E-12 -0.1203622E+01
  0.7800000E+00  0.1791056E+03 -0.1570371E+01  0.3038031E-05  0.3135462E+01  0.1453656E+03 -0.3007949E+01  0.6373677E-05  0.3109340E+01  0.3420634E+02 -0.1570359E+01  0.1705303E-12 -0.3141592E+01
  0.7900000E+00  0.1816953E+03 -0.1570356E+01  0.1684715E-05 -0.2072526E+01  0.1490742E+03 -0.3007304E+01  0.3501223E-05  0.2916712E+01  0.3469725E+02 -0.1570344E+01  0.2620352E-12  0.1789465E+01
  0.8000000E+00  0.1843081E+03 -0.1570341E+01  0.1321165E-04  0.4573425E+00  0.1528166E+03 -0.3006654E+01  0.1156969E-04 -0.1257603E+00  0.3519279E+02 -0.1570328E+01  0.2542115E-12 -0.1107149E+01
  0.8099999E+00  0.1869399E+03 -0.1570325E+01  0.2997112E-04 -0.1178567E+00  0.1565825E+03 -0.3006002E+01  0.1338125E-04  0.5721554E-01  0.3569185E+02 -0.1570312E+01  0.1024759E-12  0.2553590E+01
  0.8200001E+00  0.1895683E+03 -0.1570308E+01  0.6712107E-04 -0.3022008E+01  0.1603820E+03 -0.3005338E+01  0.1726709E-05 -0.1446558E+01  0.3618920E+02 -0.1570295E+01  0.2696320E-12  0.1892547E+01
  0.8300000E+00  0.1922204E+03 -0.1570292E+01  0.7640953E-05  0.2288228E+01  0.1642303E+03 -0.3004663E+01  0.7323946E-05 -0.8885960E-01  0.3669076E+02 -0.1570278E+01  0.4856704E-12  0.1212026E+01
  0.8400000E+00  0.1948873E+03 -0.1570275E+01  0.1907031E-04 -0.3019817E+00  0.1681505E+03 -0.3003993E+01  0.3990356E-05 -0.5448375E+00  0.3719511E+02 -0.1570261E+01  0.7963152E-12  0.1535097E+01
  0.8500000E+00  0.1975938E+03 -0.1570257E+01  0.9735295E-05 -0.3036936E+01  0.1720528E+03 -0.3003260E+01  0.4510283E-05  0.2225970E+01  0.3770665E+02 -0.1570243E+01  0.2411662E-12  0.2356194E+01
  0.8600000E+00  0.2002998E+03 -0.1570239E+01  0.2018480E-04 -0.2970606E+00  0.1760647E+03 -0.3002562E+01  0.1356170E-04  0.2863547E+01  0.3821764E+02 -0.1570224E+01  0.1906586E-12 -0.2677945E+01
  0.8700000E+00  0.2030286E+03 -0.1570220E+01  0.8884423E-05  0.2660786E+01  0.1800778E+03 -0.3001812E+01  0.6259209E-05 -0.1689476E+01  0.3873285E+02 -0.1570205E+01  0.2842171E-13 -0.1570796E+01
  0.8800000E+00  0.2057807E+03 -0.1570201E+01  0.4881585E-04  0.3114231E+01  0.1841544E+03 -0.3001061E+01  0.5998742E-05  0.3136003E+01  0.3925236E+02 -0.1570185E+01  0.8815313E-12  0.1933341E+01
  0.8900001E+00  0.2085513E+03 -0.1570181E+01  0.1241442E-04  0.1680514E-01  0.1882873E+03 -0.3000298E+01  0.8053998E-05  0.3075879E+01  0.3977536E+02 -0.1570164E+01  0.3469312E-12 -0.9600704E+00
  0.9000000E+00  0.2113137E+03 -0.1570161E+01  0.3779853E-04  0.3022005E+01  0.1924966E+03 -0.2999537E+01  0.8246549E-05  0.2258153E+01  0.4029798E+02 -0.1570143E+01  0.4963638E-12 -0.1801887E+01
  0.9100001E+00  0.2140800E+03 -0.1570140E+01  0.1361208E-04  0.2574909E+00  0.1967368E+03 -0.2998743E+01  0.1141057E-04  0.3140481E+01  0.4082153E+02 -0.1570122E+01  0.1797547E-12 -0.1249046E+01
  0.9200000E+00  0.2168452E+03 -0.1570118E+01  0.2839259E-04 -0.2102856E+01  0.2010640E+03 -0.2997953E+01  0.7543939E-05 -0.3072203E+01  0.4134510E+02 -0.1570099E+01  0.6310644E-12 -0.1435269E+01
  0.9300001E+00  0.2196455E+03 -0.1570095E+01  0.3142074E-04  0.2472216E+00  0.2053834E+03 -0.2997102E+01  0.4926187E-06 -0.1364688E+01  0.4187534E+02 -0.1570076E+01  0.1797547E-12  0.3217506E+00
  0.9400001E+00  0.2224443E+03 -0.1570072E+01  0.6573859E-05  0.2837136E+01  0.2097843E+03 -0.2996242E+01  0.1892633E-05 -0.9783581E+00  0.4240537E+02 -0.1570052E+01  0.2049518E-12  0.5880026E+00
  0.9500000E+00  0.2252423E+03 -0.1570048E+01  0.1015954E-04  0.2917515E+01  0.2142222E+03 -0.2995353E+01  0.1311178E-04  0.3051441E+01  0.4293489E+02 -0.1570027E+01  0.1797547E-12  0.1249046E+01
  0.9600000E+00  0.2280481E+03 -0.1570024E+01  0.2311762E-04  0.1699828E+01  0.2186899E+03 -0.2994505E+01  0.4044749E-05  0.2831593E+01  0.4346579E+02 -0.1570002E+01  0.3515571E-12  0.1815775E+01
  0.9700000E+00  0.2308691E+03 -0.1569998E+01  0.3995594E-04  0.2942832E+00  0.2232208E+03 -0.2993661E+01  0.1557884E-04  0.1173234E-01  0.4399949E+02 -0.1569976E+01  0.2842171E-12 -0.2498091E+01
  0.9800000E+00  0.2337006E+03 -0.1569972E+01  0.4775976E-04  0.6421127E+00  0.2277804E+03 -0.2992784E+01  0.6651623E-05 -0.3816536E+00  0.4453477E+02 -0.1569949E+01  0.1705303E-12 -0.1570796E+01
  0.9900000E+00  0.2365422E+03 -0.1569945E+01  0.1437925E-04 -0.2117147E+01  0.2324141E+03 -0.2991905E+01  0.3325134E-05  0.2679730E+01  0.4507139E+02 -0.1569922E+01  0.2681299E-12  0.1012197E+01
  0.1000000E+01  0.2393699E+03 -0.1569917E+01  0.2080250E-04 -0.2993491E+01  0.2371161E+03 -0.2991004E+01  0.8204712E-05 -0.1008264E+00  0.4560587E+02 -0.1569893E+01  0.8695371E-12  0.1373401E+01
  0.1010000E+01  0.2422215E+03 -0.1569889E+01  0.2768750E-04  0.1701410E+01  0.2418697E+03 -0.2990090E+01  0.2292215E-04 -0.6228004E-01  0.4614521E+02 -0.1569864E+01  0.1271058E-12  0.2034444E+01
  0.1020000E+01  0.2450783E+03 -0.1569859E+01  0.4079549E-05 -0.2409490E+01  0.2466467E+03 -0.2989179E+01  0.1181134E-04  0.1044193E+00  0.4668610E+02 -0.1569833E+01  0.2291431E-12  0.5191461E+00
  0.1030000E+01  0.2480446E+03 -0.1569829E+01  0.4600473E-04  0.1141000E+00  0.2514225E+03 -0.2988302E+01  0.1768267E-05  0.2621385E+01  0.4724670E+02 -0.1569803E+01  0.2842171E-12  0.2214298E+01
  0.1040000E+01  0.2509133E+03 -0.1569798E+01  0.4009177E-04  0.5124730E+00  0.2562372E+03 -0.2987405E+01  0.1681546E-04 -0.2166182E+00  0.4778870E+02 -0.1569771E+01  0.2842171E-12  0.6435011E+00
  0.1050000E+01  0.2537912E+03 -0.1569766E+01  0.1151910E-04  0.2769914E+01  0.2610921E+03 -0.2986484E+01  0.1363971E-04  0.1183927E+00  0.4833205E+02 -0.1569738E+01  0.9667560E-12  0.2717398E+01
  0.1060000E+01  0.2566817E+03 -0.1569734E+01  0.4137416E-05 -0.2455040E+01  0.2659947E+03 -0.2985545E+01  0.2890110E-05  0.9496316E-01  0.4887794E+02 -0.1569704E+01  0.5240704E-12 -0.2279423E+01
  0.1070000E+01  0.2595840E+03 -0.1569699E+01  0.5012501E-04  0.5889548E-01  0.2709603E+03 -0.2984601E+01  0.1158730E-04 -0.7741763E-01  0.4942620E+02 -0.1569669E+01  0.9099387E-12 -0.1539557E+01
  0.1080000E+01  0.2625247E+03 -0.1569665E+01  0.2458692E-04  0.2369373E+01  0.2759622E+03 -0.2983633E+01  0.1021335E-04 -0.1278499E+00  0.4998095E+02 -0.1569633E+01  0.1029478E-11  0.1681454E+01
  0.1090000E+01  0.2655119E+03 -0.1569628E+01  0.5770635E-04  0.3609052E+00  0.2810053E+03 -0.2982642E+01  0.6180533E-05 -0.3011827E+01  0.5054210E+02 -0.1569596E+01  0.7122460E-12 -0.2070143E+01
  0.1100000E+01  0.2685345E+03 -0.1569591E+01  0.2785500E-04  0.2972003E+01  0.2860944E+03 -0.2981629E+01  0.1731227E-05 -0.1986098E+01  0.5110884E+02 -0.1569558E+01  0.1136868E-12  0.0000000E+00
  0.1110000E+01  0.2715958E+03 -0.1569553E+01  0.2240592E-04 -0.2589197E+01  0.2912357E+03 -0.2980598E+01  0.6512261E-05  0.2829639E+01  0.5168192E+02 -0.1569518E+01  0.6938623E-12  0.6107258E+00
  0.1120000E+01  0.2747003E+03 -0.1569513E+01  0.1792147E-04 -0.1209398E+01  0.2964411E+03 -0.2979553E+01  0.4006604E-05  0.4159409E+00  0.5226363E+02 -0.1569478E+01  0.6653351E-12 -0.3487710E+00
  0.1130000E+01  0.2778318E+03 -0.1569473E+01  0.4516755E-04  0.3034415E+01  0.3016794E+03 -0.2978476E+01  0.5031253E-05  0.2729956E+01  0.5285151E+02 -0.1569436E+01  0.6629025E-12  0.2601173E+01
  0.1140000E+01  0.2809702E+03 -0.1569431E+01  0.8546607E-04  0.3138324E+01  0.3069784E+03 -0.2977379E+01  0.9518250E-05  0.6897302E+00  0.5344118E+02 -0.1569392E+01  0.3314512E-12  0.1030377E+01
  0.1150000E+01  0.2841329E+03 -0.1569387E+01  0.3170516E-04 -0.3038954E+01  0.3123188E+03 -0.2976251E+01  0.9897041E-05  0.3114618E+01  0.5403551E+02 -0.1569348E+01  0.5934627E-12 -0.1279340E+01
  0.1160000E+01  0.2873209E+03 -0.1569342E+01  0.8263029E-04  0.2975051E+01  0.3177308E+03 -0.2975104E+01  0.1623424E-04  0.5586845E+00  0.5463465E+02 -0.1569301E+01  0.3215549E-12  0.7853982E+00
  0.1170000E+01  0.2905411E+03 -0.1569296E+01  0.3739338E-04  0.1479836E+00  0.3231854E+03 -0.2973924E+01  0.2537873E-05 -0.1395218E+01  0.5524002E+02 -0.1569254E+01  0.2411662E-12 -0.7853982E+00
  0.1180000E+01  0.2937963E+03 -0.1569248E+01  0.3975438E-04 -0.1103419E+01  0.3286873E+03 -0.2972706E+01  0.2086240E-05  0.2656599E+00  0.5585159E+02 -0.1569205E+01  0.3457650E-12  0.1651487E+00
  0.1190000E+01  0.2970639E+03 -0.1569199E+01  0.9080511E-05  0.2890345E+01  0.3342360E+03 -0.2971443E+01  0.4970268E-05 -0.6387792E+00  0.5646494E+02 -0.1569154E+01  0.5362597E-12  0.1012197E+01
  0.1200000E+01  0.3003502E+03 -0.1569149E+01  0.3225265E-04 -0.3004181E+00  0.3398114E+03 -0.2970215E+01  0.3758021E-05  0.2576012E+00  0.5708111E+02 -0.1569103E+01  0.7279510E-12 -0.2466852E+01
  0.1210000E+01  0.3036704E+03 -0.1569097E+01  0.3290992E-04 -0.8734782E+00  0.3454586E+03 -0.2969015E+01  0.6862125E-05  0.2823276E+01  0.5770358E+02 -0.1569049E+01  0.5684342E-12 -0.1570796E+01
  0.1220000E+01  0.3070237E+03 -0.1569044E+01  0.8403762E-04 -0.1706509E+00  0.3511533E+03 -0.2967787E+01  0.1202578E-04 -0.4144430E-01  0.5833164E+02 -0.1568993E+01  0.2842171E-12  0.6435011E+00
  0.1230000E+01  0.3104133E+03 -0.1568988E+01  0.4080054E-04  0.3070955E+01  0.3568766E+03 -0.2966518E+01  0.5507775E-05  0.2373009E+01  0.5896571E+02 -0.1568937E+01  0.8038873E-13  0.2356194E+01
  0.1240000E+01  0.3138236E+03 -0.1568931E+01  0.5631542E-04  0.2308596E+00  0.3626810E+03 -0.2965235E+01  0.1842108E-04  0.2920380E+01  0.5960365E+02 -0.1568877E+01  0.6938623E-12 -0.2530867E+01
  0.1250000E+01  0.3172679E+03 -0.1568872E+01  0.3702230E-04  0.2493664E+01  0.3685592E+03 -0.2963922E+01  0.1440593E-04  0.1999709E+00  0.6024804E+02 -0.1568816E+01  0.2542115E-12  0.1107149E+01
  0.1260000E+01  0.3207462E+03 -0.1568811E+01  0.1947191E-04 -0.1740348E+01  0.3744589E+03 -0.2962574E+01  0.5796496E-05 -0.2105435E+00  0.6089896E+02 -0.1568754E+01  0.4099037E-12  0.2158799E+01
  0.1270000E+01  0.3242510E+03 -0.1568748E+01  0.4644150E-04  0.3093285E+01  0.3804092E+03 -0.2961262E+01  0.1679377E-04 -0.1400971E+00  0.6155522E+02 -0.1568689E+01  0.4582863E-12 -0.1051650E+01
  0.1280000E+01  0.3277906E+03 -0.1568684E+01  0.3927949E-04 -0.1850450E+00  0.3863285E+03 -0.2959987E+01  0.1834429E-04 -0.2482910E+00  0.6221801E+02 -0.1568624E+01  0.4019437E-12 -0.1428899E+01
  0.1290000E+01  0.3313204E+03 -0.1568619E+01  0.8961622E-04  0.2779698E+01  0.3922464E+03 -0.2958717E+01  0.9469032E-05 -0.2745602E+01  0.6287763E+02 -0.1568556E+01  0.6653351E-12  0.1222025E+01
  0.1300000E+01  0.3348734E+03 -0.1568551E+01  0.2762532E-04  0.8534378E+00  0.3982198E+03 -0.2957433E+01  0.3634313E-04 -0.2065097E+00  0.6354079E+02 -0.1568486E+01  0.3457650E-12  0.2976444E+01
  0.1310000E+01  0.3384631E+03 -0.1568482E+01  0.6061886E-04  0.3004241E+01  0.4042943E+03 -0.2956155E+01  0.2115867E-04  0.1402101E+00  0.6421047E+02 -0.1568415E+01  0.8450382E-12 -0.1227772E+01
  0.1320000E+01  0.3420794E+03 -0.1568410E+01  0.1712030E-04  0.2160308E+01  0.4103641E+03 -0.2954829E+01  0.2107362E-04  0.3129616E+01  0.6488546E+02 -0.1568341E+01  0.6938623E-12 -0.2530867E+01
  0.1330000E+01  0.3457256E+03 -0.1568336E+01  0.5224288E-04  0.2377978E+01  0.4164855E+03 -0.2953489E+01  0.1362930E-04 -0.3128011E+01  0.6556601E+02 -0.1568264E+01  0.5684342E-12 -0.6435011E+00
  0.1340000E+01  0.3494109E+03 -0.1568260E+01  0.5925019E-04 -0.4679497E+00  0.4225408E+03 -0.2952077E+01  0.1632926E-04  0.3026544E+01  0.6625352E+02 -0.1568186E+01  0.4889856E-12  0.6202495E+00
  0.1350000E+01  0.3530990E+03 -0.1568181E+01  0.1562652E-04 -0.1827744E+01  0.4288536E+03 -0.2950740E+01  0.2122110E-04 -0.6249316E+00  0.6694132E+02 -0.1568105E+01  0.6844854E-12  0.1487655E+01
  0.1360000E+01  0.3568224E+03 -0.1568099E+01  0.2449957E-04  0.2332323E+01  0.4349922E+03 -0.2949275E+01  0.2450900E-04  0.1198703E+00  0.6763566E+02 -0.1568021E+01  0.4582863E-12  0.5191461E+00
  0.1370000E+01  0.3605779E+03 -0.1568015E+01  0.4171287E-04 -0.2430971E+01  0.4412957E+03 -0.2947843E+01  0.1950219E-04 -0.1031541E+00  0.6833625E+02 -0.1567934E+01  0.7978354E-12  0.1642104E+01
  0.1380000E+01  0.3643688E+03 -0.1567929E+01  0.7029402E-04 -0.2974946E+01  0.4476533E+03 -0.2946389E+01  0.8462526E-05  0.2736361E+00  0.6904356E+02 -0.1567845E+01  0.5712693E-12  0.1670465E+01
  0.1390000E+01  0.3681782E+03 -0.1567839E+01  0.1246239E-03 -0.2736960E+01  0.4538804E+03 -0.2944824E+01  0.6719810E-05  0.2475499E+01  0.6975453E+02 -0.1567752E+01  0.2542115E-12 -0.1107149E+01
  0.1400000E+01  0.3719713E+03 -0.1567746E+01  0.8168522E-04  0.4954085E+00  0.4604535E+03 -0.2943372E+01  0.2930525E-04  0.3424670E+00  0.7046388E+02 -0.1567657E+01  0.6629025E-12 -0.2111216E+01
  0.1410000E+01  0.3757708E+03 -0.1567650E+01  0.3022508E-04 -0.2152509E+01  0.4667162E+03 -0.2941718E+01  0.5071627E-05 -0.1628673E+01  0.7117454E+02 -0.1567557E+01  0.2842171E-12  0.2214298E+01
  0.1420000E+01  0.3795896E+03 -0.1567550E+01  0.5443495E-04 -0.1042107E+00  0.4732981E+03 -0.2940160E+01  0.2449884E-04  0.1170299E+00  0.7188874E+02 -0.1567455E+01  0.4019437E-12 -0.1428899E+01
  0.1430000E+01  0.3834271E+03 -0.1567447E+01  0.2701658E-04 -0.2341081E+01  0.4798437E+03 -0.2938526E+01  0.5284438E-05  0.5047619E+00  0.7260718E+02 -0.1567349E+01  0.7234986E-12  0.7853982E+00
  0.1440000E+01  0.3872980E+03 -0.1567341E+01  0.3059438E-04 -0.1037936E+01  0.4864413E+03 -0.2936859E+01  0.7432843E-05  0.2006521E+01  0.7333218E+02 -0.1567239E+01  0.8138739E-12  0.1781890E+01
  0.1450000E+01  0.3911855E+03 -0.1567232E+01  0.1437865E-03  0.3071271E+01  0.4930215E+03 -0.2935116E+01  0.2814597E-04  0.5396958E-01  0.7405974E+02 -0.1567127E+01  0.6042538E-12 -0.8519663E+00
  0.1460000E+01  0.3950529E+03 -0.1567119E+01  0.4736324E-04  0.2682588E+01  0.4997151E+03 -0.2933365E+01  0.1126946E-04 -0.2774779E+01  0.7478339E+02 -0.1567011E+01  0.8658132E-12  0.1165905E+01
  0.1470000E+01  0.3989266E+03 -0.1567002E+01  0.5022242E-04  0.6499248E+00  0.5064695E+03 -0.2931671E+01  0.2842901E-05 -0.1593566E+01  0.7550784E+02 -0.1566890E+01  0.6355287E-12  0.2034444E+01
  0.1480000E+01  0.4028332E+03 -0.1566882E+01  0.3366060E-04  0.3019104E+01  0.5131500E+03 -0.2929920E+01  0.3530784E-04 -0.3134312E+01  0.7623840E+02 -0.1566767E+01  0.8676771E-12 -0.5516550E+00
  0.1490000E+01  0.4067616E+03 -0.1566758E+01  0.8647010E-04 -0.2522375E+01  0.5199108E+03 -0.2928150E+01  0.1374055E-04  0.2744825E+00  0.7697253E+02 -0.1566638E+01  0.5598428E-12  0.4182243E+00
  0.1500000E+01  0.4107229E+03 -0.1566629E+01  0.9009516E-04  0.3829798E-01  0.5267919E+03 -0.2926368E+01  0.6977262E-05  0.2225597E+01  0.7771197E+02 -0.1566506E+01  0.8526513E-12  0.0000000E+00
  0.1510000E+01  0.4147661E+03 -0.1566496E+01  0.7746452E-04  0.3119181E+01  0.5336849E+03 -0.2924533E+01  0.2468927E-04 -0.2744148E+00  0.7846381E+02 -0.1566368E+01  0.2273737E-12  0.1570796E+01
  0.1520000E+01  0.4188739E+03 -0.1566359E+01  0.9094967E-04 -0.2795320E+01  0.5406380E+03 -0.2922652E+01  0.2701627E-04  0.2703825E+01  0.7922579E+02 -0.1566227E+01  0.3813172E-12  0.2034444E+01
  0.1530000E+01  0.4230349E+03 -0.1566218E+01  0.3614883E-04 -0.1413610E+01  0.5476896E+03 -0.2920752E+01  0.1598030E-04  0.2851749E+01  0.7999689E+02 -0.1566082E+01  0.2343714E-12 -0.1815775E+01
  0.1540000E+01  0.4272596E+03 -0.1566074E+01  0.5345371E-04 -0.1444177E+01  0.5546771E+03 -0.2918848E+01  0.2325904E-04 -0.1239850E+00  0.8077942E+02 -0.1565933E+01  0.8198074E-12  0.2553590E+01
  0.1550000E+01  0.4315414E+03 -0.1565926E+01  0.1045118E-03 -0.2838633E+01  0.5616658E+03 -0.2917057E+01  0.2725442E-05  0.1795655E+01  0.8157390E+02 -0.1565780E+01  0.7626345E-12  0.4636476E+00
  0.1560000E+01  0.4358570E+03 -0.1565776E+01  0.7099986E-04 -0.4209255E-01  0.5686484E+03 -0.2915330E+01  0.3833505E-04  0.1158573E+00  0.8237416E+02 -0.1565625E+01  0.9713407E-12  0.1929567E+01
  0.1570000E+01  0.4401942E+03 -0.1565621E+01  0.6197087E-04  0.6315984E+00  0.5755892E+03 -0.2913586E+01  0.2704300E-04 -0.2609247E+01  0.8317664E+02 -0.1565466E+01  0.3595094E-12 -0.2819842E+01
  0.1580000E+01  0.4445800E+03 -0.1565462E+01  0.2916733E-04 -0.7745605E+00  0.5826246E+03 -0.2911831E+01  0.1304843E-04  0.5102510E+00  0.8398744E+02 -0.1565302E+01  0.6122223E-12 -0.1190290E+01
  0.1590000E+01  0.4489599E+03 -0.1565298E+01  0.6892261E-04  0.2905030E+01  0.5898958E+03 -0.2910134E+01  0.1744699E-04  0.3120773E+01  0.8479769E+02 -0.1565132E+01  0.6122223E-12 -0.1190290E+01
  0.1600000E+01  0.4534618E+03 -0.1565130E+01  0.1131088E-03  0.2859188E-01  0.5969164E+03 -0.2908310E+01  0.1648117E-04 -0.3529675E-01  0.8562960E+02 -0.1564959E+01  0.3215549E-12 -0.2356194E+01
  0.1610000E+01  0.4581221E+03 -0.1564960E+01  0.6640697E-04  0.3446013E+00  0.6036633E+03 -0.2906356E+01  0.2738186E-04 -0.2599972E+01  0.8648919E+02 -0.1564782E+01  0.4099037E-12  0.2158799E+01
  0.1620000E+01  0.4627473E+03 -0.1564782E+01  0.1670552E-03  0.2993697E+01  0.6107985E+03 -0.2904519E+01  0.4063714E-04 -0.3124648E+00  0.8734325E+02 -0.1564599E+01  0.4823324E-12 -0.7853982E+00
  0.1630000E+01  0.4674081E+03 -0.1564599E+01  0.3048339E-04 -0.2133308E+01  0.6179393E+03 -0.2902650E+01  0.6187490E-05  0.9550918E+00  0.8820264E+02 -0.1564410E+01  0.5684342E-12  0.9272952E+00
  0.1640000E+01  0.4721298E+03 -0.1564411E+01  0.2814183E-04 -0.1234059E+01  0.6249933E+03 -0.2900711E+01  0.9840072E-05 -0.2455355E+01  0.8907313E+02 -0.1564215E+01  0.8276527E-12 -0.2782997E+00
  0.1650000E+01  0.4769127E+03 -0.1564217E+01  0.8208519E-04  0.1938176E+00  0.6321906E+03 -0.2898797E+01  0.1662349E-04 -0.2773235E+01  0.8995498E+02 -0.1564015E+01  0.4823324E-12 -0.7853982E+00