VARIABLES="w (rad/s)"
"abs(F   1   1)" "angle(F   1   1)"
"abs(F   1   2)" "angle(F   1   2)"
"abs(F   1   3)" "angle(F   1   3)"
"abs(F   1   4)" "angle(F   1   4)"
"abs(F   1   5)" "angle(F   1   5)"
"abs(F   1   6)" "angle(F   1   6)"
Zone t="Diffraction force - beta =   0.000 deg",I=  2986,F=POINT
  0.1500000E+00  0.9367518E+02 -0.1570792E+01  0.2607730E-02 -0.3141346E+01  0.7877765E+04 -0.7748262E-04  0.2258849E-03  0.9901597E-04  0.1841236E+02 -0.1570792E+01  0.5459674E-11  0.3904324E-02
  0.1600000E+00  0.1000443E+03 -0.1570795E+01  0.1293255E-02  0.3141321E+01  0.7876047E+04 -0.8811605E-04  0.1239489E-02  0.2433404E-03  0.1966203E+02 -0.1570796E+01  0.1636576E-10 -0.4775824E-02
  0.1700000E+00  0.1063547E+03 -0.1570791E+01  0.1737266E-02  0.7237150E-04  0.7874202E+04 -0.9957344E-04  0.1929427E-03 -0.1905360E-02  0.2090156E+02 -0.1570788E+01  0.1999926E-10 -0.3137685E+01
  0.1800000E+00  0.1126297E+03 -0.1570789E+01  0.1306718E-03 -0.2455320E-02  0.7872238E+04 -0.1118865E-03  0.1466286E-03 -0.9812195E-03  0.2213632E+02 -0.1570788E+01  0.7283285E-11  0.7804720E-02
  0.1900000E+00  0.1189130E+03 -0.1570792E+01  0.7956002E-03  0.3140897E+01  0.7870156E+04 -0.1247178E-03  0.1566751E-03  0.3140769E+01  0.2337085E+02 -0.1570787E+01  0.9091938E-11 -0.3130651E+01
  0.2000000E+00  0.1251355E+03 -0.1570789E+01  0.5813587E-03  0.1714114E-03  0.7867959E+04 -0.1383860E-03  0.2986481E-03 -0.3140927E+01  0.2459427E+02 -0.1570794E+01  0.3641335E-11  0.4294234E-01
  0.2100000E+00  0.1314231E+03 -0.1570788E+01  0.1855264E-02 -0.5125310E-03  0.7865683E+04 -0.1527728E-03  0.3016146E-03  0.4171411E-03  0.2583008E+02 -0.1570786E+01  0.3641038E-11 -0.4099265E-01
  0.2200000E+00  0.1377782E+03 -0.1570788E+01  0.1191813E-02 -0.3141072E+01  0.7863302E+04 -0.1679148E-03  0.1890506E-04  0.1935701E-01  0.2707819E+02 -0.1570789E+01  0.9109294E-11  0.5460165E-02
  0.2300000E+00  0.1441830E+03 -0.1570786E+01  0.1638462E-03  0.3140916E+01  0.7860801E+04 -0.1838093E-03  0.1084849E-02  0.1380813E-03  0.2833648E+02 -0.1570787E+01  0.5455214E-11 -0.3097293E+01
  0.2400000E+00  0.1505488E+03 -0.1570787E+01  0.2434994E-02  0.3141346E+01  0.7858170E+04 -0.2004629E-03  0.3554052E-03  0.2882502E-04  0.2958736E+02 -0.1570789E+01  0.1823221E-11 -0.3114310E+01
  0.2500000E+00  0.1569092E+03 -0.1570786E+01  0.2681439E-02 -0.2900124E-04  0.7855429E+04 -0.2178849E-03  0.4784997E-03  0.3140607E+01  0.3083696E+02 -0.1570785E+01  0.1840190E-11  0.4248650E-01
  0.2600000E+00  0.1632744E+03 -0.1570786E+01  0.1082892E-02 -0.3141413E+01  0.7852604E+04 -0.2360755E-03  0.9888108E-03 -0.3141533E+01  0.3208664E+02 -0.1570785E+01  0.5468184E-11 -0.1429402E-01
  0.2700000E+00  0.1696532E+03 -0.1570784E+01  0.1742521E-02 -0.3141137E+01  0.7849669E+04 -0.2550396E-03  0.3113658E-03  0.9687386E-03  0.3333948E+02 -0.1570783E+01  0.1821555E-10  0.3119747E+01
  0.2800000E+00  0.1760171E+03 -0.1570783E+01  0.9337565E-03  0.4687749E-03  0.7846621E+04 -0.2747842E-03  0.1947368E-03 -0.3141450E+01  0.3458836E+02 -0.1570783E+01  0.1273343E-10  0.3132664E+01
  0.2900000E+00  0.1823822E+03 -0.1570781E+01  0.1340527E-02  0.3140383E+01  0.7843459E+04 -0.2953308E-03  0.5166456E-03  0.6322173E-03  0.3583736E+02 -0.1570781E+01  0.1817950E-10  0.5471903E-02
  0.3000000E+00  0.1887211E+03 -0.1570781E+01  0.6156010E-03 -0.9833639E-03  0.7840219E+04 -0.3166775E-03  0.4833385E-03 -0.5154355E-03  0.3708220E+02 -0.1570781E+01  0.1091394E-10  0.3140291E+01
  0.3100000E+00  0.1950630E+03 -0.1570778E+01  0.2302294E-03  0.3138506E+01  0.7836830E+04 -0.3388585E-03  0.1915076E-03  0.3140734E+01  0.3832870E+02 -0.1570781E+01  0.1275431E-10  0.3342605E-02
  0.3200000E+00  0.2014261E+03 -0.1570777E+01  0.3560723E-02  0.3140935E+01  0.7833367E+04 -0.3618538E-03  0.2389309E-03  0.8643551E-03  0.3957853E+02 -0.1570779E+01  0.1803270E-11 -0.3007219E+01
  0.3300000E+00  0.2078339E+03 -0.1570778E+01  0.5983830E-03 -0.3136960E+01  0.7829778E+04 -0.3856449E-03  0.1139751E-03 -0.2390063E-03  0.4083664E+02 -0.1570778E+01  0.7283295E-11  0.3096701E+01
  0.3400000E+00  0.2142422E+03 -0.1570775E+01  0.1086136E-02  0.2957398E-02  0.7826069E+04 -0.4103651E-03  0.4815104E-03 -0.3140707E+01  0.4209497E+02 -0.1570775E+01  0.7277415E-11  0.3711046E-01
  0.3500000E+00  0.2207058E+03 -0.1570773E+01  0.6521253E-03  0.7799123E-02  0.7822270E+04 -0.4358685E-03  0.1789408E-03 -0.3141308E+01  0.4336300E+02 -0.1570775E+01  0.1842325E-11 -0.2852168E+01
  0.3600000E+00  0.2271904E+03 -0.1570771E+01  0.1149060E-02  0.3141073E+01  0.7818346E+04 -0.4622683E-03  0.3413421E-03  0.9782233E-03  0.4463594E+02 -0.1570772E+01  0.4263255E-13 -0.3141593E+01
  0.3700000E+00  0.2336833E+03 -0.1570771E+01  0.2094395E-02 -0.3141296E+01  0.7814351E+04 -0.4894497E-03  0.3404401E-03  0.7046876E-03  0.4590858E+02 -0.1570772E+01  0.5440708E-11  0.3118083E+01
  0.3800000E+00  0.2401880E+03 -0.1570771E+01  0.1623738E-02  0.3140816E+01  0.7810216E+04 -0.5175495E-03  0.4723990E-03  0.1046915E-02  0.4718347E+02 -0.1570771E+01  0.7267306E-11  0.3911898E-01
  0.3900000E+00  0.2467129E+03 -0.1570767E+01  0.1825548E-02  0.3141205E+01  0.7805995E+04 -0.5465893E-03  0.2324833E-03  0.4186632E-02  0.4846194E+02 -0.1570768E+01  0.1456748E-10 -0.1365769E-01
  0.4000000E+00  0.2532595E+03 -0.1570766E+01  0.5412829E-02 -0.3140915E+01  0.7801660E+04 -0.5765329E-03  0.3376864E-03 -0.3140916E+01  0.4974487E+02 -0.1570766E+01  0.1818998E-10 -0.3124991E-02
  0.4100000E+00  0.2597984E+03 -0.1570764E+01  0.1171725E-02 -0.2952799E-02  0.7797205E+04 -0.6074297E-03  0.2377377E-03  0.3083885E-02  0.5102794E+02 -0.1570765E+01  0.5457042E-11 -0.5208286E-02
  0.4200000E+00  0.2663270E+03 -0.1570762E+01  0.1021499E-02  0.2772550E-02  0.7792654E+04 -0.6392651E-03  0.2307008E-03  0.3140271E+01  0.5230972E+02 -0.1570763E+01  0.1812600E-10  0.2352011E-02
  0.4300000E+00  0.2728628E+03 -0.1570762E+01  0.8358877E-03  0.1525302E-02  0.7787993E+04 -0.6721289E-03  0.1814955E-04  0.4260494E-01  0.5359299E+02 -0.1570761E+01  0.1646377E-10 -0.3133824E+01
  0.4400000E+00  0.2793865E+03 -0.1570759E+01  0.5831247E-03  0.3140542E+01  0.7783221E+04 -0.7058733E-03  0.2231690E-03 -0.1397622E-02  0.5487338E+02 -0.1570759E+01  0.1842005E-11 -0.3010061E+01
  0.4500000E+00  0.2859258E+03 -0.1570756E+01  0.7436854E-03  0.3138568E+01  0.7778351E+04 -0.7405356E-03  0.2432921E-03 -0.7051894E-03  0.5615659E+02 -0.1570757E+01  0.1863140E-11 -0.1300314E+00
  0.4600000E+00  0.2924496E+03 -0.1570755E+01  0.1524735E-02  0.1629642E-02  0.7773347E+04 -0.7762303E-03  0.1335519E-02  0.5057962E-04  0.5743756E+02 -0.1570755E+01  0.1548338E-10  0.9178261E-02
  0.4700000E+00  0.2989783E+03 -0.1570753E+01  0.1660183E-02 -0.3140758E+01  0.7768247E+04 -0.8129313E-03  0.3972256E-04 -0.3120257E+01  0.5872016E+02 -0.1570755E+01  0.8315078E-11 -0.1113178E+00
  0.4800000E+00  0.3055255E+03 -0.1570751E+01  0.6222434E-04 -0.3112447E+01  0.7763071E+04 -0.8505589E-03  0.6421133E-03  0.8929050E-04  0.6000563E+02 -0.1570752E+01  0.1901417E-10 -0.2242151E-02
  0.4900000E+00  0.3121098E+03 -0.1570748E+01  0.2006986E-02 -0.3138931E+01  0.7757771E+04 -0.8892432E-03  0.4041393E-04  0.2901002E-01  0.6129529E+02 -0.1570749E+01  0.9073675E-11 -0.3138460E+01
  0.5000000E+00  0.3187387E+03 -0.1570747E+01  0.6213036E-03  0.4945160E-02  0.7752374E+04 -0.9290075E-03  0.4233524E-04 -0.1487685E-02  0.6259312E+02 -0.1570747E+01  0.9052183E-11  0.3925712E-01
  0.5100000E+00  0.3254082E+03 -0.1570744E+01  0.3637551E-02 -0.2432239E-04  0.7746865E+04 -0.9698226E-03  0.3926894E-03 -0.2064080E-02  0.6389880E+02 -0.1570744E+01  0.6070876E-13  0.1212025E+01
  0.5200000E+00  0.3321152E+03 -0.1570743E+01  0.1994718E-02  0.3501707E-03  0.7741257E+04 -0.1011778E-02  0.1521101E-03  0.3344142E-02  0.6521184E+02 -0.1570743E+01  0.1362895E-10  0.3131165E+01
  0.5300000E+00  0.3388556E+03 -0.1570740E+01  0.7581566E-03 -0.1965431E-04  0.7735526E+04 -0.1054939E-02  0.6514004E-03  0.2217859E-03  0.6653124E+02 -0.1570739E+01  0.3545723E-11  0.8015875E-02
  0.5400000E+00  0.3456147E+03 -0.1570737E+01  0.9491705E-04  0.3428972E-01  0.7729693E+04 -0.1099178E-02  0.7634052E-03  0.3140336E+01  0.6785534E+02 -0.1570738E+01  0.1848558E-11  0.2804117E+00
  0.5500000E+00  0.3523822E+03 -0.1570734E+01  0.1298434E-02  0.3138421E+01  0.7723758E+04 -0.1144721E-02  0.1360130E-03  0.4650183E-02  0.6918118E+02 -0.1570736E+01  0.2002149E-10 -0.3106096E+01
  0.5600000E+00  0.3591851E+03 -0.1570731E+01  0.4188397E-03  0.2746909E-01  0.7717678E+04 -0.1191495E-02  0.6722433E-04 -0.3140132E+01  0.7051389E+02 -0.1570733E+01  0.4627264E-11  0.3080132E+01
  0.5700001E+00  0.3659883E+03 -0.1570727E+01  0.9838903E-03  0.3918806E-03  0.7711512E+04 -0.1239561E-02  0.3431912E-03 -0.3140231E+01  0.7184597E+02 -0.1570730E+01  0.1089001E-10  0.2871273E-01
  0.5800000E+00  0.3728070E+03 -0.1570726E+01  0.1273653E-02 -0.3140204E+01  0.7705242E+04 -0.1288528E-02  0.1245639E-02 -0.1116826E-02  0.7318073E+02 -0.1570726E+01  0.1018929E-11 -0.1399247E+00
  0.5900000E+00  0.3796506E+03 -0.1570723E+01  0.1306374E-02 -0.3135238E+01  0.7698882E+04 -0.1338734E-02  0.9906356E-03  0.2383399E-02  0.7451983E+02 -0.1570724E+01  0.8200452E-11 -0.1386394E-01
  0.6000000E+00  0.3865160E+03 -0.1570719E+01  0.1986339E-02 -0.3248289E-02  0.7692399E+04 -0.1390144E-02  0.7157978E-03 -0.3141249E+01  0.7586278E+02 -0.1570720E+01  0.2826970E-10  0.3105392E+01
  0.6100000E+00  0.3934004E+03 -0.1570717E+01  0.4838032E-02 -0.3140672E+01  0.7685797E+04 -0.1442947E-02  0.4360760E-03  0.2901885E-03  0.7720991E+02 -0.1570719E+01  0.2686002E-11 -0.3131011E+01
  0.6200000E+00  0.4003068E+03 -0.1570714E+01  0.3204626E-02 -0.1984340E-02  0.7679105E+04 -0.1496918E-02  0.4996928E-03  0.1217754E-02  0.7856186E+02 -0.1570716E+01  0.1746347E-10  0.3086230E+01
  0.6300000E+00  0.4072179E+03 -0.1570711E+01  0.1152200E-02 -0.3140073E+01  0.7672303E+04 -0.1552031E-02  0.3200531E-03 -0.3138751E+01  0.7991434E+02 -0.1570711E+01  0.1093528E-10  0.3060934E+01
  0.6400000E+00  0.4141414E+03 -0.1570707E+01  0.3712660E-03 -0.1181031E-01  0.7665413E+04 -0.1608495E-02  0.3026387E-04 -0.3091074E+01  0.8126864E+02 -0.1570708E+01  0.3819628E-11  0.2916467E+01
  0.6500000E+00  0.4210842E+03 -0.1570704E+01  0.2698455E-02  0.3137906E+01  0.7658445E+04 -0.1666399E-02  0.4764016E-03 -0.3065671E-02  0.8262691E+02 -0.1570706E+01  0.8188610E-11 -0.3113822E+01
  0.6600000E+00  0.4280535E+03 -0.1570701E+01  0.3753986E-03  0.3140704E+01  0.7651359E+04 -0.1725709E-02  0.1604827E-03 -0.3135799E+01  0.8399000E+02 -0.1570700E+01  0.1910110E-10 -0.3128201E+01
  0.6700001E+00  0.4350462E+03 -0.1570696E+01  0.3684124E-03  0.1267541E-01  0.7644109E+04 -0.1786466E-02  0.6849041E-03  0.3140684E+01  0.8535725E+02 -0.1570698E+01  0.6368508E-11  0.7146645E-01
  0.6800001E+00  0.4420579E+03 -0.1570693E+01  0.6016248E-03 -0.2079750E-01  0.7636785E+04 -0.1848803E-02  0.1792950E-03  0.3137434E+01  0.8672842E+02 -0.1570693E+01  0.9062347E-11 -0.4706099E-01
  0.6900001E+00  0.4490965E+03 -0.1570688E+01  0.9212987E-03  0.3139153E+01  0.7629362E+04 -0.1912692E-02  0.2847174E-05 -0.9660506E-01  0.8810503E+02 -0.1570689E+01  0.2660885E-11  0.2904386E+01
  0.7000000E+00  0.4561377E+03 -0.1570685E+01  0.4347796E-03  0.3137441E+01  0.7621810E+04 -0.1978243E-02  0.4781532E-03 -0.3140251E+01  0.8948337E+02 -0.1570685E+01  0.7170837E-11 -0.3006422E+01
  0.7100000E+00  0.4631790E+03 -0.1570681E+01  0.2729281E-02  0.1794890E-02  0.7614176E+04 -0.2045465E-02  0.1893968E-03 -0.3128124E+01  0.9086215E+02 -0.1570680E+01  0.1879489E-11  0.2786362E+01
  0.7200000E+00  0.4702347E+03 -0.1570676E+01  0.4523081E-03  0.5888872E-03  0.7606405E+04 -0.2114450E-02  0.6929164E-03 -0.3140344E+01  0.9224397E+02 -0.1570676E+01  0.4438248E-11  0.3096751E+01
  0.7300000E+00  0.4773185E+03 -0.1570672E+01  0.3479833E-02 -0.1557630E-02  0.7598547E+04 -0.2185317E-02  0.2323063E-03  0.5158890E-02  0.9363141E+02 -0.1570672E+01  0.1062322E-10  0.3077338E+01
  0.7400000E+00  0.4844491E+03 -0.1570667E+01  0.3311526E-02 -0.3140799E+01  0.7590563E+04 -0.2258033E-02  0.5083049E-03  0.9044244E-03  0.9502539E+02 -0.1570668E+01  0.1719748E-11  0.2958783E+01
  0.7500000E+00  0.4916169E+03 -0.1570662E+01  0.1136523E-02  0.3132200E+01  0.7582498E+04 -0.2331627E-02  0.2654000E-04  0.3115803E+01  0.9642535E+02 -0.1570662E+01  0.1937530E-11 -0.2602431E+01
  0.7600000E+00  0.4988298E+03 -0.1570658E+01  0.1958336E-02  0.4517911E-03  0.7574320E+04 -0.2406838E-02  0.3024268E-03  0.4665839E-02  0.9783316E+02 -0.1570658E+01  0.8073780E-11 -0.3078186E+01
  0.7700000E+00  0.5060910E+03 -0.1570653E+01  0.1153635E-02  0.3138892E+01  0.7566018E+04 -0.2483933E-02  0.4150448E-03  0.3138769E+01  0.9925015E+02 -0.1570653E+01  0.7135263E-11 -0.3121675E+01
  0.7800000E+00  0.5133892E+03 -0.1570648E+01  0.9828787E-03 -0.3141528E+01  0.7557608E+04 -0.2562903E-02  0.6008373E-03  0.3141335E+01  0.1006745E+03 -0.1570647E+01  0.2256712E-10  0.5037738E-02
  0.7900000E+00  0.5207331E+03 -0.1570643E+01  0.1106000E-02 -0.3140971E+01  0.7549087E+04 -0.2643883E-02  0.2816180E-03  0.3422996E-02  0.1021075E+03 -0.1570643E+01  0.5517399E-11  0.3105526E+01
  0.8000000E+00  0.5281195E+03 -0.1570637E+01  0.9389097E-03  0.3137026E+01  0.7540471E+04 -0.2726402E-02  0.1253642E-03 -0.1339616E-01  0.1035490E+03 -0.1570637E+01  0.7194679E-11 -0.3046641E+01
  0.8099999E+00  0.5355447E+03 -0.1570632E+01  0.2040053E-02 -0.2059814E-02  0.7531774E+04 -0.2810249E-02  0.1512022E-03  0.3138772E+01  0.1049977E+03 -0.1570632E+01  0.1009371E-10  0.3113431E+01
  0.8200001E+00  0.5429871E+03 -0.1570626E+01  0.4083651E-02 -0.3138921E+01  0.7522986E+04 -0.2895827E-02  0.1564049E-03 -0.1232477E-01  0.1064487E+03 -0.1570626E+01  0.1463854E-10  0.3128002E+01
  0.8300000E+00  0.5504730E+03 -0.1570621E+01  0.2399199E-02  0.2832945E-02  0.7514079E+04 -0.2983444E-02  0.2071567E-03 -0.3137528E+01  0.1079079E+03 -0.1570620E+01  0.3667172E-11  0.2810038E+01
  0.8400000E+00  0.5579955E+03 -0.1570614E+01  0.4792128E-02 -0.3140885E+01  0.7505054E+04 -0.3073201E-02  0.2374067E-03 -0.3132827E+01  0.1093738E+03 -0.1570615E+01  0.1003431E-10  0.3033750E+01
  0.8500000E+00  0.5655785E+03 -0.1570608E+01  0.4834856E-02  0.3141320E+01  0.7495978E+04 -0.3164995E-02  0.6090009E-04  0.3077034E+01  0.1108510E+03 -0.1570608E+01  0.1290346E-10  0.3141592E+01
  0.8600000E+00  0.5731830E+03 -0.1570601E+01  0.4690322E-03 -0.7855219E-02  0.7486743E+04 -0.3259047E-02  0.6252618E-03  0.6053879E-02  0.1123319E+03 -0.1570602E+01  0.6201210E-11 -0.4126098E-01
  0.8700000E+00  0.5808323E+03 -0.1570595E+01  0.1810251E-02  0.2979824E-02  0.7477449E+04 -0.3355363E-02  0.2385318E-03 -0.3116940E+01  0.1138213E+03 -0.1570596E+01  0.1000933E-10 -0.3110353E+01
  0.8800000E+00  0.5885275E+03 -0.1570588E+01  0.9896966E-03  0.2343131E-02  0.7468011E+04 -0.3453998E-02  0.2691148E-03 -0.2335956E-02  0.1153192E+03 -0.1570589E+01  0.6696556E-11  0.3069378E+01
  0.8900001E+00  0.5962635E+03 -0.1570582E+01  0.1256212E-02  0.3140866E+01  0.7458471E+04 -0.3555097E-02  0.1716792E-03  0.2113641E-02  0.1168251E+03 -0.1570581E+01  0.1857875E-11 -0.2630037E+01
  0.9000000E+00  0.6040149E+03 -0.1570574E+01  0.1085985E-02  0.3137207E+01  0.7448808E+04 -0.3658762E-02  0.9761948E-04  0.6602653E-01  0.1183350E+03 -0.1570574E+01  0.6494159E-11  0.3075898E+01
  0.9100001E+00  0.6117941E+03 -0.1570566E+01  0.3361237E-02  0.3140423E+01  0.7439041E+04 -0.3765049E-02  0.1078285E-03  0.3141280E+01  0.1198505E+03 -0.1570568E+01  0.9158144E-11 -0.3724984E-01
  0.9200000E+00  0.6195952E+03 -0.1570559E+01  0.1615271E-02 -0.1331925E-01  0.7429144E+04 -0.3874155E-02  0.5556043E-03 -0.1009718E-02  0.1213704E+03 -0.1570559E+01  0.6493910E-11 -0.1140405E+00
  0.9300001E+00  0.6274568E+03 -0.1570551E+01  0.1570815E-04  0.2364411E+01  0.7419175E+04 -0.3986010E-02  0.5022995E-03 -0.3140659E+01  0.1229020E+03 -0.1570552E+01  0.4413700E-11  0.3012446E+01
  0.9400001E+00  0.6353419E+03 -0.1570543E+01  0.1453771E-02  0.3140598E+01  0.7409091E+04 -0.4101055E-02  0.2106236E-03 -0.3132143E+01  0.1244380E+03 -0.1570543E+01  0.1654934E-10 -0.3091798E-01
  0.9500000E+00  0.6432512E+03 -0.1570535E+01  0.1018361E-02  0.3138377E+01  0.7398889E+04 -0.4219057E-02  0.4247699E-03  0.3441733E-02  0.1259783E+03 -0.1570534E+01  0.3656583E-11  0.2938100E+01
  0.9600000E+00  0.6511934E+03 -0.1570526E+01  0.3229590E-02  0.7260113E-02  0.7388604E+04 -0.4337876E-02  0.8702068E-03  0.3139859E+01  0.1275248E+03 -0.1570525E+01  0.5798656E-11  0.2843094E+01
  0.9700000E+00  0.6591780E+03 -0.1570517E+01  0.5136293E-02  0.3139306E+01  0.7378219E+04 -0.4459239E-02  0.8467074E-05 -0.3120885E+01  0.1290793E+03 -0.1570517E+01  0.8947559E-11 -0.1338110E+00
  0.9800000E+00  0.6671990E+03 -0.1570508E+01  0.1612695E-02  0.1890830E-01  0.7367736E+04 -0.4583613E-02  0.3204986E-03 -0.3134356E+01  0.1306405E+03 -0.1570507E+01  0.1001751E-10 -0.5109187E-01
  0.9900000E+00  0.6752570E+03 -0.1570498E+01  0.1817461E-02 -0.3135329E+01  0.7357103E+04 -0.4711078E-02  0.2612090E-03  0.4800871E-02  0.1322082E+03 -0.1570499E+01  0.3714734E-10 -0.3138533E+01
  0.1000000E+01  0.6833279E+03 -0.1570487E+01  0.5318703E-03 -0.3136507E+01  0.7346352E+04 -0.4842177E-02  0.1656253E-03 -0.4518153E-02  0.1337790E+03 -0.1570488E+01  0.1077719E-10  0.3062394E+01
  0.1010000E+01  0.6914515E+03 -0.1570478E+01  0.6273993E-03  0.4252059E-01  0.7335503E+04 -0.4976352E-02  0.6403882E-03 -0.3140707E+01  0.1353599E+03 -0.1570478E+01  0.3360677E-10  0.2706615E-01
  0.1020000E+01  0.6996089E+03 -0.1570468E+01  0.2242573E-02 -0.1312323E-02  0.7324568E+04 -0.5112537E-02  0.2527669E-03  0.3136406E+01  0.1369479E+03 -0.1570468E+01  0.1111812E-10 -0.3068091E-01
  0.1030000E+01  0.7079033E+03 -0.1570457E+01  0.1255928E-02  0.3838228E-02  0.7313575E+04 -0.5249161E-02  0.4983110E-03  0.1680661E-02  0.1385612E+03 -0.1570457E+01  0.1711138E-10  0.1328825E-01
  0.1040000E+01  0.7161296E+03 -0.1570446E+01  0.8765512E-03  0.3117387E+01  0.7302487E+04 -0.5388906E-02  0.7217021E-03 -0.4617096E-02  0.1401614E+03 -0.1570446E+01  0.6141457E-11  0.3113822E+01
  0.1050000E+01  0.7243947E+03 -0.1570435E+01  0.1257749E-02  0.7401790E-02  0.7291301E+04 -0.5532023E-02  0.3088299E-03  0.5271002E-02  0.1417686E+03 -0.1570435E+01  0.9163125E-11  0.9318729E-01
  0.1060000E+01  0.7327028E+03 -0.1570425E+01  0.7493686E-03  0.8948250E-03  0.7280020E+04 -0.5678535E-02  0.5782313E-03 -0.3140455E+01  0.1433841E+03 -0.1570424E+01  0.1422006E-10  0.3598447E-01
  0.1070000E+01  0.7410534E+03 -0.1570412E+01  0.2666802E-02  0.3771665E-03  0.7268619E+04 -0.5828371E-02  0.4707390E-03 -0.3140029E+01  0.1450079E+03 -0.1570412E+01  0.7312337E-11  0.4665869E-01
  0.1080000E+01  0.7494724E+03 -0.1570400E+01  0.1075374E-02  0.3125674E+01  0.7257112E+04 -0.5981730E-02  0.5671447E-03 -0.2544886E-02  0.1466441E+03 -0.1570400E+01  0.4435243E-11 -0.2563541E-01
  0.1090000E+01  0.7579700E+03 -0.1570387E+01  0.2043023E-03  0.9917425E-01  0.7245506E+04 -0.6138763E-02  0.6417377E-03 -0.3140893E+01  0.1482928E+03 -0.1570387E+01  0.1513573E-11 -0.2543174E+01
  0.1100000E+01  0.7665352E+03 -0.1570374E+01  0.9869010E-03  0.3087731E-02  0.7233807E+04 -0.6299601E-02  0.4631330E-03 -0.3626951E-02  0.1499533E+03 -0.1570375E+01  0.2012289E-10 -0.5649657E-02
  0.1110000E+01  0.7751711E+03 -0.1570361E+01  0.1806274E-02 -0.3137559E+01  0.7222010E+04 -0.6464328E-02  0.3805726E-03  0.3136268E+01  0.1516262E+03 -0.1570360E+01  0.8776191E-11  0.7130746E-01
  0.1120000E+01  0.7838832E+03 -0.1570346E+01  0.2778368E-02 -0.6435978E-02  0.7210074E+04 -0.6633169E-02  0.5262713E-03  0.9065098E-03  0.1533141E+03 -0.1570347E+01  0.6991741E-11  0.1938362E-08
  0.1130000E+01  0.7926554E+03 -0.1570333E+01  0.1064768E-02  0.3134920E+01  0.7198080E+04 -0.6806172E-02  0.2152289E-03  0.5323475E-02  0.1550146E+03 -0.1570333E+01  0.3144423E-11  0.2186690E+00
  0.1140000E+01  0.8014694E+03 -0.1570318E+01  0.1299612E-02 -0.3141504E+01  0.7185938E+04 -0.6983661E-02  0.1432802E-03  0.4235127E-01  0.1567234E+03 -0.1570318E+01  0.8357723E-11 -0.2040533E-01
  0.1150000E+01  0.8103401E+03 -0.1570302E+01  0.2937111E-03 -0.3126930E+01  0.7173727E+04 -0.7165708E-02  0.2024239E-03 -0.3141443E+01  0.1584435E+03 -0.1570303E+01  0.5719758E-11 -0.1798535E+00
  0.1160000E+01  0.8192719E+03 -0.1570286E+01  0.4500975E-03  0.3112215E+01  0.7161362E+04 -0.7352647E-02  0.3342870E-03  0.3115851E+01  0.1601750E+03 -0.1570286E+01  0.9378303E-11  0.1093185E+00
  0.1170000E+01  0.8282716E+03 -0.1570270E+01  0.2251041E-03  0.3133615E+01  0.7148932E+04 -0.7544492E-02  0.7128048E-03 -0.3351497E-02  0.1619195E+03 -0.1570271E+01  0.2054242E-11  0.2516900E+00
  0.1180000E+01  0.8373418E+03 -0.1570253E+01  0.2238647E-02 -0.1592094E-01  0.7136391E+04 -0.7741716E-02  0.4297483E-03  0.3140468E+01  0.1636772E+03 -0.1570254E+01  0.4216003E-11  0.3074127E+01
  0.1190000E+01  0.8464606E+03 -0.1570235E+01  0.1157797E-03  0.3078228E+01  0.7123742E+04 -0.7944805E-02  0.3210565E-03 -0.3131868E+01  0.1654437E+03 -0.1570236E+01  0.1215173E-11 -0.1882214E+00
  0.1200000E+01  0.8556345E+03 -0.1570218E+01  0.3050466E-03 -0.4825692E-01  0.7111018E+04 -0.8149613E-02  0.2745741E-03  0.3136561E+01  0.1672200E+03 -0.1570219E+01  0.5684345E-12  0.9272954E+00
  0.1210000E+01  0.8648807E+03 -0.1570199E+01  0.3240968E-04 -0.9471128E+00  0.7098163E+04 -0.8357611E-02  0.3390765E-03  0.3133954E+01  0.1690097E+03 -0.1570199E+01  0.7364240E-11 -0.1549967E+00
  0.1220000E+01  0.8741976E+03 -0.1570181E+01  0.1476335E-02 -0.1375010E-01  0.7085217E+04 -0.8570854E-02  0.1440994E-03 -0.8498926E-03  0.1708123E+03 -0.1570181E+01  0.4513597E-11 -0.2847724E+01
  0.1230000E+01  0.8835889E+03 -0.1570161E+01  0.8067413E-03 -0.3138624E+01  0.7072183E+04 -0.8789674E-02  0.1015385E-02  0.4045030E-02  0.1726285E+03 -0.1570161E+01  0.2790543E-11  0.3080445E+01
  0.1240000E+01  0.8930399E+03 -0.1570141E+01  0.2203501E-03  0.4716897E-01  0.7059012E+04 -0.9014205E-02  0.1266844E-02  0.3588557E-02  0.1744559E+03 -0.1570140E+01  0.3320843E-11 -0.3021484E+01
  0.1250000E+01  0.9025632E+03 -0.1570120E+01  0.8954793E-03  0.3112401E+01  0.7045718E+04 -0.9245205E-02  0.2010683E-03  0.3129630E+01  0.1762970E+03 -0.1570119E+01  0.3860333E-11  0.2378359E+00
  0.1260000E+01  0.9121616E+03 -0.1570098E+01  0.8428501E-03 -0.3116220E+01  0.7032355E+04 -0.9481694E-02  0.7826232E-03 -0.1374154E-02  0.1781526E+03 -0.1570098E+01  0.4099037E-12  0.2158799E+01
  0.1270000E+01  0.9218265E+03 -0.1570076E+01  0.2641693E-02  0.3141015E+01  0.7018896E+04 -0.9720808E-02  0.2802874E-03 -0.9206614E-02  0.1800213E+03 -0.1570076E+01  0.5281546E-11 -0.3001218E+01
  0.1280000E+01  0.9315667E+03 -0.1570053E+01  0.2889089E-02 -0.2217829E-02  0.7005408E+04 -0.9960249E-02  0.5417087E-04 -0.7967610E-01  0.1819041E+03 -0.1570053E+01  0.2164532E-11 -0.5224035E+00
  0.1290000E+01  0.9413389E+03 -0.1570030E+01  0.4136955E-02  0.7055415E-02  0.6991856E+04 -0.1020249E-01  0.5269753E-03 -0.7500052E-02  0.1837920E+03 -0.1570030E+01  0.1160733E-10 -0.3097503E+01
  0.1300000E+01  0.9511763E+03 -0.1570006E+01  0.3168330E-02  0.6382230E-02  0.6978198E+04 -0.1045019E-01  0.4862582E-03 -0.3122638E+01  0.1856913E+03 -0.1570006E+01  0.2694432E-10  0.6329029E-02
  0.1310000E+01  0.9610931E+03 -0.1569981E+01  0.1282194E-02  0.1004124E-01  0.6964393E+04 -0.1070357E-01  0.2377407E-03  0.1376711E-01  0.1876053E+03 -0.1569981E+01  0.1572211E-11 -0.7086262E+00
  0.1320000E+01  0.9710784E+03 -0.1569955E+01  0.1856049E-02  0.3131284E+01  0.6950540E+04 -0.1096287E-01  0.2077921E-03 -0.3138465E+01  0.1895327E+03 -0.1569956E+01  0.1765809E-11 -0.2562518E+01
  0.1330000E+01  0.9811369E+03 -0.1569930E+01  0.4054761E-04  0.1272581E+01  0.6936590E+04 -0.1122783E-01  0.9541577E-03 -0.2310867E-03  0.1914742E+03 -0.1569929E+01  0.4149180E-11  0.2976444E+01
  0.1340000E+01  0.9912791E+03 -0.1569903E+01  0.3379928E-03 -0.7369234E-01  0.6922654E+04 -0.1149868E-01  0.3119061E-03  0.4954376E-02  0.1934310E+03 -0.1569902E+01  0.3240573E-11  0.2662520E+00
  0.1350000E+01  0.1001469E+04 -0.1569875E+01  0.8848287E-03 -0.3123845E+01  0.6908415E+04 -0.1177603E-01  0.5391707E-03 -0.2250461E-01  0.1953966E+03 -0.1569875E+01  0.6536005E-11  0.2877629E+01
  0.1360000E+01  0.1011739E+04 -0.1569845E+01  0.1947653E-02  0.3135621E+01  0.6894302E+04 -0.1205980E-01  0.3739330E-03  0.3134192E+01  0.1973776E+03 -0.1569845E+01  0.3433738E-11  0.2804137E+01
  0.1370000E+01  0.1022084E+04 -0.1569815E+01  0.3134021E-04 -0.1080566E+01  0.6879977E+04 -0.1235020E-01  0.1505403E-03 -0.3124952E+01  0.1993731E+03 -0.1569815E+01  0.2785328E-11  0.3141592E+01
  0.1380000E+01  0.1032514E+04 -0.1569784E+01  0.2368535E-02 -0.3137003E+01  0.6865543E+04 -0.1264750E-01  0.1566452E-03  0.1689474E-01  0.2013846E+03 -0.1569785E+01  0.2160798E-11  0.2034444E+01
  0.1390000E+01  0.1043006E+04 -0.1569752E+01  0.2598923E-02 -0.1751988E-01  0.6851212E+04 -0.1295198E-01  0.3092589E-03  0.3129772E+01  0.2034082E+03 -0.1569752E+01  0.1378614E-10 -0.6601962E-01
  0.1400000E+01  0.1053530E+04 -0.1569720E+01  0.2912689E-02  0.3129632E+01  0.6836457E+04 -0.1326382E-01  0.3262960E-03  0.3113259E+01  0.2054393E+03 -0.1569720E+01  0.5117171E-11  0.2221861E-01
  0.1410000E+01  0.1064108E+04 -0.1569685E+01  0.2469915E-02 -0.9648531E-02  0.6821992E+04 -0.1358367E-01  0.5848205E-03 -0.9656232E-02  0.2074808E+03 -0.1569685E+01  0.7119963E-11  0.6391282E-01
  0.1420000E+01  0.1074752E+04 -0.1569650E+01  0.4878687E-02 -0.3140006E+01  0.6807158E+04 -0.1391143E-01  0.1398547E-03  0.2373568E-01  0.2095352E+03 -0.1569650E+01  0.8363906E-11 -0.1707352E+00
  0.1430000E+01  0.1085463E+04 -0.1569613E+01  0.3208127E-02 -0.3136064E+01  0.6792310E+04 -0.1424777E-01  0.5443118E-03  0.3139866E+01  0.2116028E+03 -0.1569613E+01  0.1156062E-10  0.1530232E+00
  0.1440000E+01  0.1096258E+04 -0.1569575E+01  0.5617064E-03 -0.3094116E+01  0.6777368E+04 -0.1459272E-01  0.1691674E-03  0.3107485E+01  0.2136867E+03 -0.1569575E+01  0.5637824E-11 -0.3081060E+01
  0.1450000E+01  0.1107118E+04 -0.1569537E+01  0.2490853E-02  0.3138497E+01  0.6762410E+04 -0.1494724E-01  0.2143812E-03  0.6358917E-02  0.2157824E+03 -0.1569537E+01  0.4444341E-11 -0.2775337E+01
  0.1460000E+01  0.1118007E+04 -0.1569497E+01  0.1508651E-02  0.3124744E+01  0.6747288E+04 -0.1531107E-01  0.3713753E-05 -0.1075152E+01  0.2178836E+03 -0.1569497E+01  0.6111658E-11  0.3217506E+00
  0.1470000E+01  0.1128953E+04 -0.1569456E+01  0.3232669E-02  0.3132991E+01  0.6732056E+04 -0.1567785E-01  0.6248598E-03 -0.4809329E-02  0.2199953E+03 -0.1569456E+01  0.9447814E-11  0.3020969E+01
  0.1480000E+01  0.1139981E+04 -0.1569413E+01  0.1727676E-02  0.2609068E-02  0.6716859E+04 -0.1605142E-01  0.4483523E-03  0.3140938E+01  0.2221225E+03 -0.1569413E+01  0.8959828E-11 -0.8893675E-01
  0.1490000E+01  0.1151082E+04 -0.1569369E+01  0.1567555E-02 -0.3443272E-01  0.6701531E+04 -0.1643437E-01  0.1156633E-03  0.3113209E+01  0.2242630E+03 -0.1569370E+01  0.1686717E-10 -0.3033541E+01
  0.1500000E+01  0.1162267E+04 -0.1569324E+01  0.1268363E-02  0.3140042E+01  0.6686044E+04 -0.1682768E-01  0.3277842E-04  0.2939956E+01  0.2264191E+03 -0.1569324E+01  0.6507268E-11 -0.2470973E+00
  0.1510000E+01  0.1173587E+04 -0.1569277E+01  0.1225522E-02  0.4036795E-02  0.6670509E+04 -0.1723102E-01  0.1197117E-03 -0.3084496E+01  0.2285971E+03 -0.1569277E+01  0.1547186E-10  0.3104844E+01
  0.1520000E+01  0.1185024E+04 -0.1569228E+01  0.3710925E-03 -0.1001731E+00  0.6654877E+04 -0.1764576E-01  0.5273189E-03  0.2170543E-01  0.2307955E+03 -0.1569228E+01  0.2899014E-11 -0.4899573E+00
  0.1530000E+01  0.1196565E+04 -0.1569178E+01  0.9869615E-03 -0.3109731E+01  0.6639110E+04 -0.1807138E-01  0.6217971E-03  0.7823800E-02  0.2330128E+03 -0.1569178E+01  0.4023053E-11 -0.2734846E+01
  0.1540000E+01  0.1208223E+04 -0.1569126E+01  0.6472307E-04 -0.2042836E+01  0.6623355E+04 -0.1850107E-01  0.5516021E-03 -0.5112485E-02  0.2352519E+03 -0.1569127E+01  0.2388100E-10 -0.2380503E-01
  0.1550000E+01  0.1219993E+04 -0.1569073E+01  0.1555830E-02 -0.2635112E-01  0.6607536E+04 -0.1892754E-01  0.6030608E-03  0.3136877E+01  0.2375130E+03 -0.1569074E+01  0.1591616E-11 -0.1702990E-07
  0.1560000E+01  0.1231848E+04 -0.1569020E+01  0.1301238E-02 -0.1608939E-02  0.6591671E+04 -0.1935425E-01  0.9820497E-04  0.4625546E-01  0.2397901E+03 -0.1569020E+01  0.1936017E-11  0.2273053E+01
  0.1570000E+01  0.1243779E+04 -0.1568964E+01  0.1732821E-03  0.2367090E+00  0.6575823E+04 -0.1978650E-01  0.7912975E-03 -0.1918792E-01  0.2420795E+03 -0.1568965E+01  0.4244647E-11 -0.1343214E+00
  0.1580000E+01  0.1255814E+04 -0.1568908E+01  0.1211812E-02 -0.3125649E+01  0.6559826E+04 -0.2022908E-01  0.2191445E-03  0.3106286E+01  0.2443877E+03 -0.1568909E+01  0.8038873E-11  0.2999695E+01
  0.1590000E+01  0.1267896E+04 -0.1568849E+01  0.2955998E-02  0.4733512E-02  0.6543551E+04 -0.2068147E-01  0.2254533E-03  0.1012054E-02  0.2467061E+03 -0.1568850E+01  0.5377040E-11  0.2906870E+01
  0.1600000E+01  0.1280157E+04 -0.1568790E+01  0.1528561E-02  0.3100025E-02  0.6527499E+04 -0.2114148E-01  0.8379691E-03  0.3141439E+01  0.2490562E+03 -0.1568789E+01  0.1179552E-10  0.1841638E+00
  0.1610000E+01  0.1292630E+04 -0.1568728E+01  0.9999542E-03  0.3110584E+01  0.6511684E+04 -0.2160863E-01  0.2293281E-04 -0.2502291E+01  0.2514445E+03 -0.1568727E+01  0.6915300E-11  0.4783524E+00
  0.1620000E+01  0.1305123E+04 -0.1568664E+01  0.2411422E-03  0.1173382E+00  0.6495433E+04 -0.2208679E-01  0.3534227E-03 -0.3105023E+01  0.2538380E+03 -0.1568664E+01  0.8827401E-11  0.3012445E+01
  0.1630000E+01  0.1317707E+04 -0.1568598E+01  0.1115260E-03 -0.2856842E+01  0.6479140E+04 -0.2257451E-01  0.9381353E-03  0.5281143E-02  0.2562471E+03 -0.1568598E+01  0.2207399E-11 -0.2074962E+00
  0.1640000E+01  0.1330407E+04 -0.1568530E+01  0.1281478E-02 -0.3120817E+01  0.6462905E+04 -0.2307181E-01  0.4068329E-03 -0.1908338E-01  0.2586782E+03 -0.1568530E+01  0.6795582E-11 -0.2835714E+01
  0.1650000E+01  0.1343224E+04 -0.1568460E+01  0.3396036E-02  0.4778343E-02  0.6446491E+04 -0.2357927E-01  0.4332754E-03 -0.3130237E+01  0.2611311E+03 -0.1568460E+01  0.7638198E-11 -0.7448878E-01