 VARIABLES="Time (s)"
"AddedMass    1" "IRF    1"
"AddedMass    2" "IRF    2"
"AddedMass    3" "IRF    3"
"AddedMass    4" "IRF    4"
"AddedMass    5" "IRF    5"
"AddedMass    6" "IRF    6"
Zone t="DoF    1",I=   100,F=POINT
  0.0000000E+00  0.8707561E+02  0.2926368E+04  0.3034119E-08  0.1367753E-05 -0.4060626E-05  0.8636143E-04 -0.9630557E-09  0.1262358E-06  0.1754738E+02  0.5267117E+03 -0.6338931E-15 -0.8015715E-13
  0.1000000E+00  0.8707561E+02  0.2003951E+04  0.3034119E-08  0.9701566E-06 -0.4060626E-05  0.8162517E-04 -0.9630557E-09  0.1130659E-06  0.1754738E+02  0.3574293E+03 -0.6338931E-15 -0.7074528E-13
  0.2000000E+00  0.8707561E+02  0.2449488E+03  0.3034119E-08  0.1537772E-06 -0.4060626E-05  0.5746743E-04 -0.9630557E-09  0.5190700E-07  0.1754738E+02  0.4174638E+02 -0.6338931E-15 -0.2504808E-13
  0.3000000E+00  0.8707561E+02 -0.9756948E+03  0.3034119E-08 -0.4716189E-06 -0.4060626E-05  0.1813852E-04 -0.9630557E-09 -0.7072409E-07  0.1754738E+02 -0.1693109E+03 -0.6338931E-15  0.5070594E-13
  0.4000000E+00  0.8707561E+02 -0.1402889E+04  0.3034119E-08 -0.6873521E-06 -0.4060626E-05 -0.2277964E-04 -0.9630557E-09 -0.1656956E-06  0.1754738E+02 -0.2429967E+03 -0.6338931E-15  0.8675593E-13
  0.5000000E+00  0.8707561E+02 -0.1292164E+04  0.3034119E-08 -0.6004871E-06 -0.4060626E-05 -0.5613495E-04 -0.9630557E-09 -0.1355317E-06  0.1754738E+02 -0.2282196E+03 -0.6338931E-15  0.6308935E-13
  0.6000000E+00  0.8707561E+02 -0.9084760E+03  0.3034119E-08 -0.3954453E-06 -0.4060626E-05 -0.8568848E-04 -0.9630557E-09 -0.2676523E-07  0.1754738E+02 -0.1660707E+03 -0.6338931E-15  0.2204506E-13
  0.7000000E+00  0.8707561E+02 -0.4560223E+03  0.3034119E-08 -0.2589914E-06 -0.4060626E-05 -0.1119696E-03 -0.9630557E-09  0.5880313E-07  0.1754738E+02 -0.8858042E+02 -0.6338931E-15 -0.2723018E-13
  0.8000000E+00  0.8707561E+02 -0.6200610E+02  0.3034119E-08 -0.1940052E-06 -0.4060626E-05 -0.1187865E-03 -0.9630557E-09  0.7302570E-07  0.1754738E+02 -0.1799742E+02 -0.6338931E-15 -0.5530887E-13
  0.9000000E+00  0.8707561E+02  0.2130631E+03  0.3034119E-08 -0.6246816E-07 -0.4060626E-05 -0.1127017E-03 -0.9630557E-09  0.1665467E-07  0.1754738E+02  0.3341698E+02 -0.6338931E-15 -0.2608550E-13
  0.1000000E+01  0.8707561E+02  0.3603662E+03  0.3034119E-08  0.1233433E-06 -0.4060626E-05 -0.1062856E-03 -0.9630557E-09 -0.4369391E-07  0.1754738E+02  0.6261760E+02 -0.6338931E-15 -0.1775972E-15
  0.1100000E+01  0.8707561E+02  0.3956263E+03  0.3034119E-08  0.3162479E-06 -0.4060626E-05 -0.8636258E-04 -0.9630557E-09 -0.2394372E-07  0.1754738E+02  0.7147637E+02 -0.6338931E-15 -0.3600974E-13
  0.1200000E+01  0.8707561E+02  0.3523960E+03  0.3034119E-08  0.3740620E-06 -0.4060626E-05 -0.4805885E-04 -0.9630557E-09  0.5049703E-07  0.1754738E+02  0.6541485E+02 -0.6338931E-15 -0.5178059E-13
  0.1300000E+01  0.8707561E+02  0.2597334E+03  0.3034119E-08  0.1184012E-06 -0.4060626E-05 -0.2778716E-05 -0.9630557E-09  0.9334894E-07  0.1754738E+02  0.4936134E+02 -0.6338931E-15  0.2783408E-14
  0.1400000E+01  0.8707561E+02  0.1460892E+03  0.3034119E-08 -0.1550830E-06 -0.4060626E-05  0.4080486E-04 -0.9630557E-09  0.8817621E-07  0.1754738E+02  0.2879034E+02 -0.6338931E-15  0.7346781E-13
  0.1500000E+01  0.8707561E+02  0.3725750E+02  0.3034119E-08 -0.5705397E-07 -0.4060626E-05  0.8855796E-04 -0.9630557E-09  0.5290974E-07  0.1754738E+02  0.8580276E+01 -0.6338931E-15  0.1077175E-12
  0.1600000E+01  0.8707561E+02 -0.4090207E+02  0.3034119E-08  0.3550479E-06 -0.4060626E-05  0.1453108E-03 -0.9630557E-09  0.4081368E-08  0.1754738E+02 -0.6241051E+01 -0.6338931E-15  0.6763556E-13
  0.1700000E+01  0.8707561E+02 -0.7616624E+02  0.3034119E-08  0.7254058E-06 -0.4060626E-05  0.1901958E-03 -0.9630557E-09 -0.3657857E-07  0.1754738E+02 -0.1317397E+02 -0.6338931E-15  0.1608768E-13
  0.1800000E+01  0.8707561E+02 -0.7961812E+02  0.3034119E-08  0.6445904E-06 -0.4060626E-05  0.2037539E-03 -0.9630557E-09 -0.8739267E-07  0.1754738E+02 -0.1423942E+02 -0.6338931E-15  0.2357560E-13
  0.1900000E+01  0.8707561E+02 -0.6712444E+02  0.3034119E-08 -0.7805614E-08 -0.4060626E-05  0.1971747E-03 -0.9630557E-09 -0.1381000E-06  0.1754738E+02 -0.1228424E+02 -0.6338931E-15  0.2336208E-13
  0.2000000E+01  0.8707561E+02 -0.6524412E+02  0.3034119E-08 -0.8102630E-06 -0.4060626E-05  0.1821426E-03 -0.9630557E-09 -0.1106085E-06  0.1754738E+02 -0.1238086E+02 -0.6338931E-15 -0.5760113E-13
  0.2100000E+01  0.8707561E+02 -0.7878835E+02  0.3034119E-08 -0.1124325E-05 -0.4060626E-05  0.1524363E-03 -0.9630557E-09 -0.5774241E-08  0.1754738E+02 -0.1504399E+02 -0.6338931E-15 -0.1855683E-12
  0.2200000E+01  0.8707561E+02 -0.8142574E+02  0.3034119E-08 -0.8884701E-06 -0.4060626E-05  0.1164714E-03 -0.9630557E-09  0.6707329E-07  0.1754738E+02 -0.1523546E+02 -0.6338931E-15 -0.2639202E-12
  0.2300000E+01  0.8707561E+02 -0.3910752E+02  0.3034119E-08 -0.4880352E-06 -0.4060626E-05  0.7669748E-04 -0.9630557E-09  0.5473810E-07  0.1754738E+02 -0.7237525E+01 -0.6338931E-15 -0.2026341E-12
  0.2400000E+01  0.8707561E+02  0.3754633E+02  0.3034119E-08 -0.5900976E-07 -0.4060626E-05  0.1728137E-04 -0.9630557E-09  0.1800952E-07  0.1754738E+02  0.6654508E+01 -0.6338931E-15  0.6272029E-14
  0.2500000E+01  0.8707561E+02  0.8445628E+02  0.3034119E-08  0.4287652E-06 -0.4060626E-05 -0.6502469E-04 -0.9630557E-09  0.3611790E-08  0.1754738E+02  0.1479168E+02 -0.6338931E-15  0.2643879E-12
  0.2600000E+01  0.8707561E+02  0.4782527E+02  0.3034119E-08  0.8706837E-06 -0.4060626E-05 -0.1395013E-03 -0.9630557E-09 -0.1461912E-07  0.1754738E+02  0.7976397E+01 -0.6338931E-15  0.3940343E-12
  0.2700000E+01  0.8707561E+02 -0.2742300E+02  0.3034119E-08  0.1025376E-05 -0.4060626E-05 -0.1858118E-03 -0.9630557E-09 -0.3374937E-07  0.1754738E+02 -0.4980336E+01 -0.6338931E-15  0.2859578E-12
  0.2800000E+01  0.8707561E+02 -0.4043650E+02  0.3034119E-08  0.7756568E-06 -0.4060626E-05 -0.2097308E-03 -0.9630557E-09  0.3278977E-08  0.1754738E+02 -0.6287449E+01 -0.6338931E-15  0.5126593E-13
  0.2900000E+01  0.8707561E+02  0.2973638E+02  0.3034119E-08  0.2322873E-06 -0.4060626E-05 -0.2221154E-03 -0.9630557E-09  0.8999593E-07  0.1754738E+02  0.6373371E+01 -0.6338931E-15 -0.1357928E-12
  0.3000000E+01  0.8707561E+02  0.6388519E+02  0.3034119E-08 -0.3453275E-06 -0.4060626E-05 -0.2154954E-03 -0.9630557E-09  0.1513499E-06  0.1754738E+02  0.1114414E+02 -0.6338931E-15 -0.2312676E-12
  0.3100000E+01  0.8707561E+02 -0.7090455E+01  0.3034119E-08 -0.6124628E-06 -0.4060626E-05 -0.1853069E-03 -0.9630557E-09  0.1382231E-06  0.1754738E+02 -0.2457997E+01 -0.6338931E-15 -0.2448055E-12
  0.3200000E+01  0.8707561E+02 -0.5911650E+02  0.3034119E-08 -0.4841799E-06 -0.4060626E-05 -0.1367138E-03 -0.9630557E-09  0.2491887E-07  0.1754738E+02 -0.1064484E+02 -0.6338931E-15 -0.1753363E-12
  0.3300000E+01  0.8707561E+02  0.1050141E+02  0.3034119E-08 -0.1641437E-06 -0.4060626E-05 -0.6783077E-04 -0.9630557E-09 -0.1329932E-06  0.1754738E+02  0.3072417E+01 -0.6338931E-15 -0.3563265E-13
  0.3400000E+01  0.8707561E+02  0.6795398E+02  0.3034119E-08  0.1082046E-06 -0.4060626E-05  0.1695784E-04 -0.9630557E-09 -0.2077305E-06  0.1754738E+02  0.1246693E+02 -0.6338931E-15  0.1024175E-12
  0.3500000E+01  0.8707561E+02 -0.1361236E+02  0.3034119E-08  0.8857666E-07 -0.4060626E-05  0.9187502E-04 -0.9630557E-09 -0.1769470E-06  0.1754738E+02 -0.3354748E+01 -0.6338931E-15  0.1584288E-12
  0.3600000E+01  0.8707561E+02 -0.7756572E+02  0.3034119E-08 -0.1610749E-06 -0.4060626E-05  0.1390985E-03 -0.9630557E-09 -0.8166955E-07  0.1754738E+02 -0.1389728E+02 -0.6338931E-15  0.1674390E-12
  0.3700000E+01  0.8707561E+02 -0.4989616E+00  0.3034119E-08 -0.3446375E-06 -0.4060626E-05  0.1403473E-03 -0.9630557E-09  0.3503691E-07  0.1754738E+02  0.6766144E+00 -0.6338931E-15  0.1346851E-12
  0.3800000E+01  0.8707561E+02  0.3049389E+02  0.3034119E-08 -0.4557604E-06 -0.4060626E-05  0.1038680E-03 -0.9630557E-09  0.1058896E-06  0.1754738E+02  0.4963002E+01 -0.6338931E-15  0.2308138E-13
  0.3900000E+01  0.8707561E+02 -0.2753313E+02  0.3034119E-08 -0.5066013E-06 -0.4060626E-05  0.7302117E-04 -0.9630557E-09  0.1017835E-06  0.1754738E+02 -0.5677484E+01 -0.6338931E-15 -0.1026535E-12
  0.4000000E+01  0.8707561E+02  0.1799124E+02  0.3034119E-08 -0.2586179E-06 -0.4060626E-05  0.4711966E-04 -0.9630557E-09  0.5134235E-07  0.1754738E+02  0.3825715E+01 -0.6338931E-15 -0.1556890E-12
  0.4100000E+01  0.8707561E+02  0.6522493E+02  0.3034119E-08  0.3252780E-06 -0.4060626E-05  0.1839755E-04 -0.9630557E-09  0.2156144E-07  0.1754738E+02  0.1196086E+02 -0.6338931E-15 -0.1208853E-12
  0.4200000E+01  0.8707561E+02 -0.2395278E+02  0.3034119E-08  0.8478342E-06 -0.4060626E-05  0.1872468E-05 -0.9630557E-09  0.3578146E-07  0.1754738E+02 -0.4805932E+01 -0.6338931E-15 -0.6777916E-13
  0.4300000E+01  0.8707561E+02 -0.5346708E+02  0.3034119E-08  0.1058512E-05 -0.4060626E-05 -0.2368263E-04 -0.9630557E-09  0.4819261E-07  0.1754738E+02 -0.9293952E+01 -0.6338931E-15 -0.3601131E-13
  0.4400000E+01  0.8707561E+02  0.6048735E+00  0.3034119E-08  0.9385424E-06 -0.4060626E-05 -0.6587367E-04 -0.9630557E-09  0.2343876E-07  0.1754738E+02  0.4140013E+00 -0.6338931E-15  0.2112035E-13
  0.4500000E+01  0.8707561E+02 -0.1251528E+02  0.3034119E-08  0.3967332E-06 -0.4060626E-05 -0.6379522E-04 -0.9630557E-09 -0.1682136E-07  0.1754738E+02 -0.2535666E+01 -0.6338931E-15  0.1032305E-12
  0.4600000E+01  0.8707561E+02  0.2627734E+02  0.3034119E-08 -0.3142430E-06 -0.4060626E-05 -0.5379352E-04 -0.9630557E-09 -0.4876333E-07  0.1754738E+02  0.4777791E+01 -0.6338931E-15  0.1417974E-12
  0.4700000E+01  0.8707561E+02  0.5691820E+02  0.3034119E-08 -0.8045413E-06 -0.4060626E-05 -0.5057891E-04 -0.9630557E-09 -0.9143921E-07  0.1754738E+02  0.9971071E+01 -0.6338931E-15  0.9733058E-13
  0.4800000E+01  0.8707561E+02 -0.1792359E+02  0.3034119E-08 -0.9542662E-06 -0.4060626E-05 -0.1190408E-04 -0.9630557E-09 -0.1173017E-06  0.1754738E+02 -0.3575753E+01 -0.6338931E-15  0.1163739E-13
  0.4900000E+01  0.8707561E+02 -0.3025651E+02  0.3034119E-08 -0.6802896E-06 -0.4060626E-05  0.1898010E-04 -0.9630557E-09 -0.7189002E-07  0.1754738E+02 -0.4991011E+01 -0.6338931E-15 -0.2723787E-13
  0.5000000E+01  0.8707561E+02 -0.1810149E+02  0.3034119E-08 -0.5652124E-07 -0.4060626E-05  0.6231167E-04 -0.9630557E-09  0.2066283E-07  0.1754738E+02 -0.2784240E+01 -0.6338931E-15  0.1903813E-14
  0.5100000E+01  0.8707561E+02 -0.2105353E+01  0.3034119E-08  0.5286898E-06 -0.4060626E-05  0.1051847E-03 -0.9630557E-09  0.1061332E-06  0.1754738E+02 -0.2182511E+00 -0.6338931E-15 -0.1788930E-13
  0.5200000E+01  0.8707561E+02  0.3117317E+02  0.3034119E-08  0.7234628E-06 -0.4060626E-05  0.1104108E-03 -0.9630557E-09  0.1373075E-06  0.1754738E+02  0.5217148E+01 -0.6338931E-15 -0.9272513E-13
  0.5300000E+01  0.8707561E+02 -0.5457867E+01  0.3034119E-08  0.4501617E-06 -0.4060626E-05  0.1213264E-03 -0.9630557E-09  0.7675056E-07  0.1754738E+02 -0.1667436E+01 -0.6338931E-15 -0.7232744E-13
  0.5400000E+01  0.8707561E+02 -0.1854456E+02  0.3034119E-08 -0.2597027E-06 -0.4060626E-05  0.1031425E-03 -0.9630557E-09 -0.2524171E-07  0.1754738E+02 -0.3331115E+01 -0.6338931E-15  0.2552480E-13
  0.5500000E+01  0.8707561E+02  0.6036312E+01  0.3034119E-08 -0.1034325E-05 -0.4060626E-05  0.7209305E-04 -0.9630557E-09 -0.8270737E-07  0.1754738E+02  0.1636422E+01 -0.6338931E-15  0.8010123E-13
  0.5600000E+01  0.8707561E+02  0.2840671E+02  0.3034119E-08 -0.1205370E-05 -0.4060626E-05  0.4575790E-04 -0.9630557E-09 -0.8516906E-07  0.1754738E+02  0.5562763E+01 -0.6338931E-15  0.3391598E-13
  0.5700000E+01  0.8707561E+02  0.1822179E+02  0.3034119E-08 -0.6578008E-06 -0.4060626E-05  0.8617822E-05 -0.9630557E-09 -0.4353924E-07  0.1754738E+02  0.3030722E+01 -0.6338931E-15 -0.7628224E-13
  0.5800000E+01  0.8707561E+02 -0.3813179E+02  0.3034119E-08  0.2363848E-06 -0.4060626E-05 -0.2822090E-04 -0.9630557E-09  0.2109081E-07  0.1754738E+02 -0.7401334E+01 -0.6338931E-15 -0.1501815E-12
  0.5900000E+01  0.8707561E+02 -0.4483062E+02  0.3034119E-08  0.1033430E-05 -0.4060626E-05 -0.8350589E-04 -0.9630557E-09  0.6532687E-07  0.1754738E+02 -0.7958640E+01 -0.6338931E-15 -0.1295649E-12
  0.6000000E+01  0.8707561E+02  0.4419660E+01  0.3034119E-08  0.1370882E-05 -0.4060626E-05 -0.1291950E-03 -0.9630557E-09  0.8231110E-07  0.1754738E+02  0.1276502E+01 -0.6338931E-15 -0.4599476E-13
  0.6100000E+01  0.8707561E+02  0.5057621E+02  0.3034119E-08  0.1204030E-05 -0.4060626E-05 -0.1531014E-03 -0.9630557E-09  0.6556493E-07  0.1754738E+02  0.9050240E+01 -0.6338931E-15  0.5386218E-13
  0.6200000E+01  0.8707561E+02  0.2914840E+02  0.3034119E-08  0.7592911E-06 -0.4060626E-05 -0.1486746E-03 -0.9630557E-09  0.7033912E-08  0.1754738E+02  0.4671869E+01 -0.6338931E-15  0.1750170E-12
  0.6300000E+01  0.8707561E+02 -0.1721434E+02  0.3034119E-08  0.2031850E-06 -0.4060626E-05 -0.1250964E-03 -0.9630557E-09 -0.5467122E-07  0.1754738E+02 -0.3173027E+01 -0.6338931E-15  0.2585969E-12
  0.6400000E+01  0.8707561E+02 -0.2232077E+02  0.3034119E-08 -0.4521268E-06 -0.4060626E-05 -0.9615860E-04 -0.9630557E-09 -0.8098783E-07  0.1754738E+02 -0.3504030E+01 -0.6338931E-15  0.1927233E-12
  0.6500000E+01  0.8707561E+02 -0.1039176E+02  0.3034119E-08 -0.1008741E-05 -0.4060626E-05 -0.6663134E-04 -0.9630557E-09 -0.6737810E-07  0.1754738E+02 -0.1597773E+01 -0.6338931E-15  0.1004229E-13
  0.6600000E+01  0.8707561E+02 -0.1215440E+02  0.3034119E-08 -0.1245879E-05 -0.4060626E-05 -0.4033926E-04 -0.9630557E-09 -0.3261017E-07  0.1754738E+02 -0.2411810E+01 -0.6338931E-15 -0.1159619E-12
  0.6700000E+01  0.8707561E+02 -0.6030560E+01  0.3034119E-08 -0.1223300E-05 -0.4060626E-05 -0.6076687E-05 -0.9630557E-09 -0.1177543E-07  0.1754738E+02 -0.1263160E+01 -0.6338931E-15 -0.1180837E-12
  0.6800000E+01  0.8707561E+02  0.2968198E+02  0.3034119E-08 -0.8571725E-06 -0.4060626E-05  0.3410356E-04 -0.9630557E-09 -0.1953048E-07  0.1754738E+02  0.5406765E+01 -0.6338931E-15 -0.1005202E-12
  0.6900000E+01  0.8707561E+02  0.3614564E+02  0.3034119E-08 -0.1131699E-06 -0.4060626E-05  0.7264888E-04 -0.9630557E-09 -0.3541878E-07  0.1754738E+02  0.6289193E+01 -0.6338931E-15 -0.8375030E-13
  0.7000000E+01  0.8707561E+02 -0.1426857E+02  0.3034119E-08  0.6748824E-06 -0.4060626E-05  0.1099640E-03 -0.9630557E-09 -0.1246009E-07  0.1754738E+02 -0.2798274E+01 -0.6338931E-15 -0.2226083E-13
  0.7100000E+01  0.8707561E+02 -0.3666473E+02  0.3034119E-08  0.1150136E-05 -0.4060626E-05  0.1397410E-03 -0.9630557E-09  0.6790754E-07  0.1754738E+02 -0.6195561E+01 -0.6338931E-15 -0.2114273E-14
  0.7200000E+01  0.8707561E+02 -0.2720976E+01  0.3034119E-08  0.1148536E-05 -0.4060626E-05  0.1553176E-03 -0.9630557E-09  0.1306526E-06  0.1754738E+02  0.2201955E-01 -0.6338931E-15 -0.7830057E-13
  0.7300000E+01  0.8707561E+02  0.1740368E+02  0.3034119E-08  0.8685429E-06 -0.4060626E-05  0.1457092E-03 -0.9630557E-09  0.1148069E-06  0.1754738E+02  0.2927909E+01 -0.6338931E-15 -0.1542121E-12
  0.7400000E+01  0.8707561E+02 -0.4131047E+01  0.3034119E-08  0.3670657E-06 -0.4060626E-05  0.1140913E-03 -0.9630557E-09  0.6788867E-07  0.1754738E+02 -0.1318144E+01 -0.6338931E-15 -0.1157340E-12
  0.7500000E+01  0.8707561E+02 -0.9952990E+01  0.3034119E-08 -0.3792215E-06 -0.4060626E-05  0.7785852E-04 -0.9630557E-09  0.2562923E-07  0.1754738E+02 -0.1891346E+01 -0.6338931E-15  0.5028410E-13
  0.7600000E+01  0.8707561E+02  0.9721271E+01  0.3034119E-08 -0.9828775E-06 -0.4060626E-05  0.4570762E-04 -0.9630557E-09 -0.4245326E-07  0.1754738E+02  0.2032499E+01 -0.6338931E-15  0.2311732E-12
  0.7700000E+01  0.8707561E+02  0.1296466E+02  0.3034119E-08 -0.9969032E-06 -0.4060626E-05  0.7060828E-05 -0.9630557E-09 -0.1124650E-06  0.1754738E+02  0.2579707E+01 -0.6338931E-15  0.3073090E-12
  0.7800000E+01  0.8707561E+02  0.1086193E+02  0.3034119E-08 -0.4287397E-06 -0.4060626E-05 -0.4756914E-04 -0.9630557E-09 -0.1186711E-06  0.1754738E+02  0.2089556E+01 -0.6338931E-15  0.2649215E-12
  0.7900000E+01  0.8707561E+02  0.1110960E+01  0.3034119E-08  0.2000491E-06 -0.4060626E-05 -0.9760784E-04 -0.9630557E-09 -0.7467195E-07  0.1754738E+02  0.3952432E-01 -0.6338931E-15  0.1402326E-12
  0.8000000E+01  0.8707561E+02 -0.2952579E+02  0.3034119E-08  0.4860208E-06 -0.4060626E-05 -0.1367448E-03 -0.9630557E-09 -0.3627648E-07  0.1754738E+02 -0.5656797E+01 -0.6338931E-15 -0.4562664E-13
  0.8100000E+01  0.8707561E+02 -0.3649771E+02  0.3034119E-08  0.4771056E-06 -0.4060626E-05 -0.1568998E-03 -0.9630557E-09 -0.2157537E-07  0.1754738E+02 -0.6511875E+01 -0.6338931E-15 -0.2536719E-12
  0.8200000E+01  0.8707561E+02  0.1497802E+02  0.3034119E-08  0.3177086E-06 -0.4060626E-05 -0.1525097E-03 -0.9630557E-09  0.3595718E-08  0.1754738E+02  0.3049049E+01 -0.6338931E-15 -0.3600894E-12
  0.8300000E+01  0.8707561E+02  0.4882895E+02  0.3034119E-08  0.9672264E-07 -0.4060626E-05 -0.1348727E-03 -0.9630557E-09  0.6347279E-07  0.1754738E+02  0.8706614E+01 -0.6338931E-15 -0.2661192E-12
  0.8400001E+01  0.8707561E+02  0.2142697E+02  0.3034119E-08 -0.1206355E-06 -0.4060626E-05 -0.1155540E-03 -0.9630557E-09  0.9516435E-07  0.1754738E+02  0.3466367E+01 -0.6338931E-15 -0.6145059E-13
  0.8500000E+01  0.8707561E+02 -0.1851006E+02  0.3034119E-08 -0.3470130E-06 -0.4060626E-05 -0.8913318E-04 -0.9630557E-09  0.6813814E-07  0.1754738E+02 -0.3375899E+01 -0.6338931E-15  0.9387474E-13
  0.8600000E+01  0.8707561E+02 -0.3341122E+02  0.3034119E-08 -0.6062912E-06 -0.4060626E-05 -0.5490931E-04 -0.9630557E-09  0.3141984E-07  0.1754738E+02 -0.5635801E+01 -0.6338931E-15  0.1633827E-12
  0.8700000E+01  0.8707561E+02 -0.1848828E+02  0.3034119E-08 -0.5653593E-06 -0.4060626E-05 -0.4707631E-05 -0.9630557E-09  0.1002337E-07  0.1754738E+02 -0.2958873E+01 -0.6338931E-15  0.1830760E-12
  0.8800000E+01  0.8707561E+02  0.1330644E+02  0.3034119E-08 -0.4261551E-07 -0.4060626E-05  0.5531729E-04 -0.9630557E-09  0.6068622E-08  0.1754738E+02  0.2302446E+01 -0.6338931E-15  0.1401662E-12
  0.8900001E+01  0.8707561E+02  0.1760032E+02  0.3034119E-08  0.4821529E-06 -0.4060626E-05  0.1040326E-03 -0.9630557E-09  0.3444050E-08  0.1754738E+02  0.2682809E+01 -0.6338931E-15 -0.1184551E-13
  0.9000000E+01  0.8707561E+02  0.4096758E+01  0.3034119E-08  0.6014463E-06 -0.4060626E-05  0.1363664E-03 -0.9630557E-09 -0.1997124E-07  0.1754738E+02  0.5260342E+00 -0.6338931E-15 -0.1942452E-12
  0.9100000E+01  0.8707561E+02  0.6376450E+01  0.3034119E-08  0.3457688E-06 -0.4060626E-05  0.1584648E-03 -0.9630557E-09 -0.6219225E-07  0.1754738E+02  0.1382190E+01 -0.6338931E-15 -0.2237906E-12
  0.9200000E+01  0.8707561E+02  0.3869276E+01  0.3034119E-08  0.6925157E-07 -0.4060626E-05  0.1652221E-03 -0.9630557E-09 -0.9097019E-07  0.1754738E+02  0.8970049E+00 -0.6338931E-15 -0.5468318E-13
  0.9300000E+01  0.8707561E+02 -0.1163172E+02  0.3034119E-08  0.3381593E-07 -0.4060626E-05  0.1565683E-03 -0.9630557E-09 -0.6944416E-07  0.1754738E+02 -0.2067702E+01 -0.6338931E-15  0.1772685E-12
  0.9400001E+01  0.8707561E+02 -0.1569182E+02  0.3034119E-08  0.1409513E-06 -0.4060626E-05  0.1384568E-03 -0.9630557E-09 -0.2524325E-07  0.1754738E+02 -0.2782578E+01 -0.6338931E-15  0.2814028E-12
  0.9500000E+01  0.8707561E+02 -0.2506003E+01  0.3034119E-08  0.1076628E-06 -0.4060626E-05  0.1000610E-03 -0.9630557E-09  0.1270241E-07  0.1754738E+02 -0.4536950E+00 -0.6338931E-15  0.1961930E-12
  0.9600000E+01  0.8707561E+02  0.7848938E+01  0.3034119E-08 -0.1249345E-06 -0.4060626E-05  0.5328219E-04 -0.9630557E-09  0.4565899E-07  0.1754738E+02  0.1202402E+01 -0.6338931E-15  0.5176677E-13
  0.9700000E+01  0.8707561E+02  0.4182409E+01  0.3034119E-08 -0.3449325E-06 -0.4060626E-05  0.4287148E-05 -0.9630557E-09  0.4920221E-07  0.1754738E+02  0.5169091E+00 -0.6338931E-15 -0.2777815E-13
  0.9800000E+01  0.8707561E+02  0.1516275E+00  0.3034119E-08 -0.4372579E-06 -0.4060626E-05 -0.4698088E-04 -0.9630557E-09  0.2647282E-07  0.1754738E+02  0.1504695E+00 -0.6338931E-15 -0.8458534E-13
  0.9900001E+01  0.8707561E+02  0.1448383E+02  0.3034119E-08 -0.3709710E-06 -0.4060626E-05 -0.9401983E-04 -0.9630557E-09  0.2429442E-07  0.1754738E+02  0.2973642E+01 -0.6338931E-15 -0.1630823E-12
Zone t="DoF    2",I=   100,F=POINT
  0.0000000E+00 -0.1596787E-07  0.1094763E-05  0.8707553E+02  0.2926368E+04 -0.1882650E-06 -0.4545127E-05 -0.1754736E+02 -0.5267115E+03 -0.7463666E-09  0.1496023E-06 -0.1320107E-06 -0.4364811E-05
  0.1000000E+00 -0.1596787E-07  0.8588138E-06  0.8707553E+02  0.2003950E+04 -0.1882650E-06 -0.3885180E-05 -0.1754736E+02 -0.3574290E+03 -0.7463666E-09  0.7598772E-07 -0.1320107E-06 -0.3008391E-05
  0.2000000E+00 -0.1596787E-07  0.3570436E-06  0.8707553E+02  0.2449479E+03 -0.1882650E-06 -0.2042954E-05 -0.1754736E+02 -0.4174623E+02 -0.7463666E-09 -0.3549540E-07 -0.1320107E-06 -0.4109461E-06
  0.3000000E+00 -0.1596787E-07 -0.1535413E-06  0.8707553E+02 -0.9756949E+03 -0.1882650E-06  0.7794146E-06 -0.1754736E+02  0.1693109E+03 -0.7463666E-09 -0.8440016E-07 -0.1320107E-06  0.1419723E-05
  0.4000000E+00 -0.1596787E-07 -0.7429812E-06  0.8707553E+02 -0.1402889E+04 -0.1882650E-06  0.3613692E-05 -0.1754736E+02  0.2429967E+03 -0.7463666E-09 -0.1002487E-06 -0.1320107E-06  0.2097354E-05
  0.5000000E+00 -0.1596787E-07 -0.1229637E-05  0.8707553E+02 -0.1292164E+04 -0.1882650E-06  0.5084600E-05 -0.1754736E+02  0.2282195E+03 -0.7463666E-09 -0.7968904E-07 -0.1320107E-06  0.1968738E-05
  0.6000000E+00 -0.1596787E-07 -0.1053601E-05  0.8707553E+02 -0.9084751E+03 -0.1882650E-06  0.4820176E-05 -0.1754736E+02  0.1660705E+03 -0.7463666E-09 -0.6668015E-08 -0.1320107E-06  0.1407812E-05
  0.7000000E+00 -0.1596787E-07 -0.2084689E-06  0.8707553E+02 -0.4560212E+03 -0.1882650E-06  0.3155310E-05 -0.1754736E+02  0.8858018E+02 -0.7463666E-09  0.7431098E-07 -0.1320107E-06  0.7210297E-06
  0.8000000E+00 -0.1596787E-07  0.5658658E-06  0.8707553E+02 -0.6200500E+02 -0.1882650E-06  0.6599174E-06 -0.1754736E+02  0.1799726E+02 -0.7463666E-09  0.1257655E-06 -0.1320107E-06  0.1112122E-06
  0.9000000E+00 -0.1596787E-07  0.7823703E-06  0.8707553E+02  0.2130639E+03 -0.1882650E-06 -0.1963773E-05 -0.1754736E+02 -0.3341710E+02 -0.7463666E-09  0.1147718E-06 -0.1320107E-06 -0.3188738E-06
  0.1000000E+01 -0.1596787E-07  0.6202105E-06  0.8707553E+02  0.3603665E+03 -0.1882650E-06 -0.4216922E-05 -0.1754736E+02 -0.6261768E+02 -0.7463666E-09  0.1816309E-07 -0.1320107E-06 -0.5501556E-06
  0.1100000E+01 -0.1596787E-07  0.3007908E-06  0.8707553E+02  0.3956257E+03 -0.1882650E-06 -0.5745404E-05 -0.1754736E+02 -0.7147629E+02 -0.7463666E-09 -0.7534997E-07 -0.1320107E-06 -0.6068104E-06
  0.1200000E+01 -0.1596787E-07 -0.1474007E-07  0.8707553E+02  0.3523947E+03 -0.1882650E-06 -0.5900744E-05 -0.1754736E+02 -0.6541467E+02 -0.7463666E-09 -0.7227471E-07 -0.1320107E-06 -0.5413257E-06
  0.1300000E+01 -0.1596787E-07 -0.1906181E-06  0.8707553E+02  0.2597321E+03 -0.1882650E-06 -0.4148184E-05 -0.1754736E+02 -0.4936109E+02 -0.7463666E-09 -0.3145986E-07 -0.1320107E-06 -0.3996852E-06
  0.1400000E+01 -0.1596787E-07 -0.3119177E-06  0.8707553E+02  0.1460885E+03 -0.1882650E-06 -0.8064474E-06 -0.1754736E+02 -0.2879023E+02 -0.7463666E-09 -0.3383287E-07 -0.1320107E-06 -0.2270136E-06
  0.1500000E+01 -0.1596787E-07 -0.3409468E-06  0.8707553E+02  0.3725724E+02 -0.1882650E-06  0.3063541E-05 -0.1754736E+02 -0.8580251E+01 -0.7463666E-09 -0.6401514E-07 -0.1320107E-06 -0.6253950E-07
  0.1600000E+01 -0.1596787E-07 -0.1625401E-06  0.8707553E+02 -0.4090155E+02 -0.1882650E-06  0.5936390E-05 -0.1754736E+02  0.6241009E+01 -0.7463666E-09 -0.4108708E-07 -0.1320107E-06  0.5682335E-07
  0.1700000E+01 -0.1596787E-07  0.6311519E-07  0.8707553E+02 -0.7616571E+02 -0.1882650E-06  0.6627507E-05 -0.1754736E+02  0.1317386E+02 -0.7463666E-09  0.3543464E-07 -0.1320107E-06  0.1143328E-06
  0.1800000E+01 -0.1596787E-07  0.1815009E-06  0.8707553E+02 -0.7961755E+02 -0.1882650E-06  0.4791219E-05 -0.1754736E+02  0.1423934E+02 -0.7463666E-09  0.5830261E-07 -0.1320107E-06  0.1249391E-06
  0.1900000E+01 -0.1596787E-07  0.3230872E-06  0.8707553E+02 -0.6712406E+02 -0.1882650E-06  0.1329049E-05 -0.1754736E+02  0.1228415E+02 -0.7463666E-09  0.2780594E-07 -0.1320107E-06  0.1091980E-06
  0.2000000E+01 -0.1596787E-07  0.3763511E-06  0.8707553E+02 -0.6524373E+02 -0.1882650E-06 -0.1600676E-05 -0.1754736E+02  0.1238086E+02 -0.7463666E-09  0.2014213E-07 -0.1320107E-06  0.1048884E-06
  0.2100000E+01 -0.1596787E-07  0.1704490E-07  0.8707553E+02 -0.7878843E+02 -0.1882650E-06 -0.2882858E-05 -0.1754736E+02  0.1504402E+02 -0.7463666E-09  0.3871085E-07 -0.1320107E-06  0.1199392E-06
  0.2200000E+01 -0.1596787E-07 -0.4000732E-06  0.8707553E+02 -0.8142595E+02 -0.1882650E-06 -0.2654631E-05 -0.1754736E+02  0.1523552E+02 -0.7463666E-09  0.3938209E-07 -0.1320107E-06  0.1191413E-06
  0.2300000E+01 -0.1596787E-07 -0.3445078E-06  0.8707553E+02 -0.3910802E+02 -0.1882650E-06 -0.1347200E-05 -0.1754736E+02  0.7237599E+01 -0.7463666E-09  0.1365118E-07 -0.1320107E-06  0.5596046E-07
  0.2400000E+01 -0.1596787E-07  0.3935777E-07  0.8707553E+02  0.3754607E+02 -0.1882650E-06 -0.8205068E-07 -0.1754736E+02 -0.6654466E+01 -0.7463666E-09 -0.4787162E-08 -0.1320107E-06 -0.5519061E-07
  0.2500000E+01 -0.1596787E-07  0.2179572E-06  0.8707553E+02  0.8445598E+02 -0.1882650E-06  0.3139343E-06 -0.1754736E+02 -0.1479161E+02 -0.7463666E-09 -0.6728455E-08 -0.1320107E-06 -0.1237104E-06
  0.2600000E+01 -0.1596787E-07 -0.2250072E-07  0.8707553E+02  0.4782518E+02 -0.1882650E-06  0.1273605E-07 -0.1754736E+02 -0.7976393E+01 -0.7463666E-09 -0.1021574E-07 -0.1320107E-06 -0.7092999E-07
  0.2700000E+01 -0.1596787E-07 -0.4742437E-06  0.8707553E+02 -0.2742298E+02 -0.1882650E-06 -0.6879207E-06 -0.1754736E+02  0.4980312E+01 -0.7463666E-09 -0.2832468E-07 -0.1320107E-06  0.3909006E-07
  0.2800000E+01 -0.1596787E-07 -0.5984518E-06  0.8707553E+02 -0.4043623E+02 -0.1882650E-06 -0.1472811E-05 -0.1754736E+02  0.6287395E+01 -0.7463666E-09 -0.6220294E-07 -0.1320107E-06  0.5855422E-07
  0.2900000E+01 -0.1596787E-07 -0.5363198E-07  0.8707553E+02  0.2973679E+02 -0.1882650E-06 -0.1715144E-05 -0.1754736E+02 -0.6373444E+01 -0.7463666E-09 -0.8084643E-07 -0.1320107E-06 -0.4428066E-07
  0.3000000E+01 -0.1596787E-07  0.5908679E-06  0.8707553E+02  0.6388554E+02 -0.1882650E-06 -0.8065269E-06 -0.1754736E+02 -0.1114421E+02 -0.7463666E-09 -0.7243889E-07 -0.1320107E-06 -0.9531442E-07
  0.3100000E+01 -0.1596787E-07  0.7350242E-06  0.8707553E+02 -0.7090236E+01 -0.1882650E-06  0.1035570E-05 -0.1754736E+02  0.2457959E+01 -0.7463666E-09 -0.3306208E-07 -0.1320107E-06  0.7602536E-08
  0.3200000E+01 -0.1596787E-07  0.4770288E-06  0.8707553E+02 -0.5911658E+02 -0.1882650E-06  0.2573180E-05 -0.1754736E+02  0.1064486E+02 -0.7463666E-09  0.3924046E-07 -0.1320107E-06  0.8508650E-07
  0.3300000E+01 -0.1596787E-07  0.9482671E-07  0.8707553E+02  0.1050140E+02 -0.1882650E-06  0.2787810E-05 -0.1754736E+02 -0.3072397E+01 -0.7463666E-09  0.1094338E-06 -0.1320107E-06 -0.1337104E-07
  0.3400000E+01 -0.1596787E-07 -0.2349583E-06  0.8707553E+02  0.6795386E+02 -0.1882650E-06  0.1617547E-05 -0.1754736E+02 -0.1246691E+02 -0.7463666E-09  0.1282265E-06 -0.1320107E-06 -0.9559574E-07
  0.3500000E+01 -0.1596787E-07 -0.3822722E-06  0.8707553E+02 -0.1361262E+02 -0.1882650E-06 -0.3969478E-06 -0.1754736E+02  0.3354807E+01 -0.7463666E-09  0.9282632E-07 -0.1320107E-06  0.2208104E-07
  0.3600000E+01 -0.1596787E-07 -0.2024225E-06  0.8707553E+02 -0.7756590E+02 -0.1882650E-06 -0.2368642E-05 -0.1754736E+02  0.1389734E+02 -0.7463666E-09  0.6111924E-07 -0.1320107E-06  0.1125312E-06
  0.3700000E+01 -0.1596787E-07  0.7034251E-07  0.8707553E+02 -0.4991258E+00 -0.1882650E-06 -0.3544360E-05 -0.1754736E+02 -0.6765886E+00 -0.7463666E-09  0.2855799E-07 -0.1320107E-06 -0.1676294E-08
  0.3800000E+01 -0.1596787E-07  0.9171492E-07  0.8707553E+02  0.3049372E+02 -0.1882650E-06 -0.3602866E-05 -0.1754736E+02 -0.4962969E+01 -0.7463666E-09 -0.6654551E-07 -0.1320107E-06 -0.4633030E-07
  0.3900000E+01 -0.1596787E-07 -0.9029255E-07  0.8707553E+02 -0.2753319E+02 -0.1882650E-06 -0.2419193E-05 -0.1754736E+02  0.5677485E+01 -0.7463666E-09 -0.1754343E-06 -0.1320107E-06  0.3984782E-07
  0.4000000E+01 -0.1596787E-07 -0.2789406E-06  0.8707553E+02  0.1799146E+02 -0.1882650E-06 -0.2557079E-06 -0.1754736E+02 -0.3825779E+01 -0.7463666E-09 -0.1691981E-06 -0.1320107E-06 -0.2494541E-07
  0.4100000E+01 -0.1596787E-07 -0.2897364E-06  0.8707553E+02  0.6522525E+02 -0.1882650E-06  0.2257452E-05 -0.1754736E+02 -0.1196091E+02 -0.7463666E-09 -0.5599392E-07 -0.1320107E-06 -0.9262538E-07
  0.4200000E+01 -0.1596787E-07 -0.2130653E-06  0.8707553E+02 -0.2395260E+02 -0.1882650E-06  0.4475351E-05 -0.1754736E+02  0.4805910E+01 -0.7463666E-09  0.4666728E-07 -0.1320107E-06  0.3631802E-07
  0.4300000E+01 -0.1596787E-07 -0.5342479E-07  0.8707553E+02 -0.5346699E+02 -0.1882650E-06  0.5770894E-05 -0.1754736E+02  0.9293951E+01 -0.7463666E-09  0.8867130E-07 -0.1320107E-06  0.7687209E-07
  0.4400000E+01 -0.1596787E-07  0.2534230E-06  0.8707553E+02  0.6048632E+00 -0.1882650E-06  0.5443077E-05 -0.1754736E+02 -0.4139915E+00 -0.7463666E-09  0.6573138E-07 -0.1320107E-06 -0.2713064E-08
  0.4500000E+01 -0.1596787E-07  0.4854630E-06  0.8707553E+02 -0.1251539E+02 -0.1882650E-06  0.3401815E-05 -0.1754736E+02  0.2535714E+01 -0.7463666E-09  0.7939159E-09 -0.1320107E-06  0.1691964E-07
  0.4600000E+01 -0.1596787E-07  0.4564721E-06  0.8707553E+02  0.2627727E+02 -0.1882650E-06  0.3851835E-06 -0.1754736E+02 -0.4777762E+01 -0.7463666E-09 -0.2721859E-07 -0.1320107E-06 -0.3893561E-07
  0.4700000E+01 -0.1596787E-07  0.2517293E-06  0.8707553E+02  0.5691818E+02 -0.1882650E-06 -0.2598956E-05 -0.1754736E+02 -0.9971077E+01 -0.7463666E-09 -0.4850308E-08 -0.1320107E-06 -0.8238219E-07
  0.4800000E+01 -0.1596787E-07  0.5088815E-07  0.8707553E+02 -0.1792348E+02 -0.1882650E-06 -0.4713674E-05 -0.1754736E+02  0.3575751E+01 -0.7463666E-09  0.3617085E-07 -0.1320107E-06  0.2734331E-07
  0.4900000E+01 -0.1596787E-07 -0.1061535E-06  0.8707553E+02 -0.3025646E+02 -0.1882650E-06 -0.5636385E-05 -0.1754736E+02  0.4991016E+01 -0.7463666E-09  0.8064943E-07 -0.1320107E-06  0.4532636E-07
  0.5000000E+01 -0.1596787E-07 -0.1916900E-06  0.8707553E+02 -0.1810140E+02 -0.1882650E-06 -0.5491907E-05 -0.1754736E+02  0.2784245E+01 -0.7463666E-09  0.9832254E-07 -0.1320107E-06  0.2734001E-07