VARIABLES="w (rad/s)"
"A   1   1" "B   1   1"
"A   1   2" "B   1   2"
"A   1   3" "B   1   3"
"A   1   4" "B   1   4"
"A   1   5" "B   1   5"
"A   1   6" "B   1   6"
Zone t="Motion of body    1 in DoF   1",I=  2986,F=POINT
  0.1500000E+00  0.1691760E+03  0.2890091E-03 -0.7962807E-06 -0.5048406E-11  0.3700455E-04  0.6826120E-06  0.4268562E-08 -0.5615508E-12  0.3241994E+02  0.5679919E-04  0.1184238E-12  0.0000000E+00
  0.1600000E+00  0.1696661E+03  0.3502723E-03 -0.1263106E-05 -0.1470823E-11  0.3246823E-04  0.7189033E-06 -0.2161414E-06  0.4818368E-13  0.3250663E+02  0.6885372E-04  0.4440892E-13  0.2168404E-18
  0.1700000E+00  0.1698075E+03  0.4206908E-03  0.7656020E-06  0.9226397E-11  0.3511634E-04  0.8097336E-06 -0.2017580E-06 -0.6628031E-12  0.3253243E+02  0.8269960E-04  0.8359326E-13 -0.5421011E-18
  0.1800000E+00  0.1697594E+03  0.5018339E-03  0.6389907E-06 -0.7887024E-12  0.4772511E-04  0.1140855E-05  0.2570838E-07 -0.2229328E-12  0.3253089E+02  0.9862788E-04  0.3552713E-12  0.4336809E-18
  0.1900000E+00  0.1697287E+03  0.5896899E-03 -0.9190683E-06 -0.1520561E-11  0.3115519E-04  0.7429049E-06  0.1638239E-06  0.1864731E-11  0.3252447E+02  0.1158560E-03  0.3739699E-12  0.7589415E-18
  0.2000000E+00  0.1694423E+03  0.6888308E-03  0.2149027E-05  0.4334311E-12  0.2572313E-04  0.8558936E-06  0.4816684E-07  0.7553957E-12  0.3247144E+02  0.1353987E-03  0.3197442E-12 -0.5421011E-18
  0.2100000E+00  0.1694046E+03  0.7992858E-03 -0.6519258E-06  0.3844036E-11  0.4422452E-04  0.1346867E-05  0.8939034E-08  0.6696865E-12  0.3246547E+02  0.1570936E-03  0.2030122E-12  0.5421011E-18
  0.2200000E+00  0.1695873E+03  0.9210659E-03  0.6201762E-06 -0.7105427E-13  0.3036112E-04  0.5924423E-06 -0.5509884E-07  0.4725109E-12  0.3249934E+02  0.1810162E-03  0.3875688E-12  0.2602085E-17
  0.2300000E+00  0.1699015E+03  0.1055724E-02  0.1012307E-06 -0.9947598E-12  0.2941360E-04  0.9686069E-06 -0.1006613E-06 -0.1532552E-11  0.3256099E+02  0.2074634E-03 -0.6178632E-13  0.2168404E-17
  0.2400000E+00  0.1700402E+03  0.1202889E-02  0.7955047E-06 -0.1544720E-10  0.3669411E-04  0.1144884E-05 -0.7366907E-07 -0.1358913E-11  0.3258934E+02  0.2363907E-03 -0.2664535E-12 -0.1084202E-17
  0.2500000E+00  0.1701295E+03  0.1363614E-02 -0.1203269E-05  0.5272227E-11  0.5301833E-04  0.1484203E-05  0.2953457E-06 -0.2717826E-12  0.3260703E+02  0.2679755E-03 -0.3410605E-12  0.1517883E-17
  0.2600000E+00  0.1702043E+03  0.1538317E-02  0.2158161E-05 -0.9848122E-11  0.3320523E-04  0.1239675E-05  0.1296800E-06  0.2744471E-12  0.3261984E+02  0.3023074E-03  0.2459571E-12  0.1517883E-17
  0.2700000E+00  0.1702914E+03  0.1728120E-02  0.1190023E-06  0.4263256E-11  0.4319957E-04  0.1747630E-05  0.3233759E-06 -0.1596945E-11  0.3263660E+02  0.3395883E-03  0.1315820E-12  0.4336809E-18
  0.2800000E+00  0.1703078E+03  0.1933391E-02  0.3974752E-06 -0.8157031E-11  0.3577609E-04  0.1170043E-05  0.1733757E-06  0.3481659E-12  0.3263679E+02  0.3799271E-03 -0.1015061E-12 -0.8673617E-18
  0.2900000E+00  0.1703054E+03  0.2155354E-02  0.2633395E-06 -0.1421085E-10  0.3095845E-04  0.1446519E-05  0.2620348E-06  0.3109513E-11  0.3263358E+02  0.4235044E-03 -0.2695162E-12  0.8673617E-18
  0.3000000E+00  0.1702126E+03  0.2393275E-02 -0.2359350E-06 -0.9634959E-11  0.2821907E-04  0.1165732E-05 -0.9507251E-08  0.9157120E-12  0.3261549E+02  0.4702403E-03  0.2368476E-13 -0.4336809E-17
  0.3100000E+00  0.1701118E+03  0.2650142E-02  0.1096557E-06  0.2523848E-10  0.3678424E-04  0.1537328E-05 -0.1506358E-06 -0.4449774E-12  0.3259860E+02  0.5207109E-03 -0.2292073E-13  0.2602085E-17
  0.3200000E+00  0.1700470E+03  0.2925396E-02  0.3055902E-07  0.8611778E-11  0.4803296E-04  0.2013554E-05 -0.1000899E-06 -0.7354117E-12  0.3258683E+02  0.5747623E-03  0.6439294E-12  0.1431147E-16
  0.3300000E+00  0.1700681E+03  0.3218842E-02  0.8847564E-06 -0.4803269E-11  0.5876363E-04  0.2417852E-05 -0.3086770E-09  0.1154632E-11  0.3259079E+02  0.6324343E-03 -0.2799108E-12 -0.6505213E-17
  0.3400000E+00  0.1700667E+03  0.3535145E-02 -0.4204647E-06  0.1153921E-10  0.4416660E-04  0.2351063E-05  0.1348192E-07 -0.4044765E-11  0.3259103E+02  0.6946351E-03 -0.1044916E-12  0.8673617E-18
  0.3500000E+00  0.1701656E+03  0.3872047E-02 -0.3219715E-06  0.1136868E-12  0.4654484E-04  0.2638724E-05  0.1692180E-07 -0.7238654E-11  0.3260840E+02  0.7607455E-03 -0.2842171E-12  0.3469447E-17
  0.3600000E+00  0.1702823E+03  0.4233109E-02  0.7476451E-06 -0.1307399E-11  0.5219545E-04  0.2576496E-05 -0.1101095E-06 -0.3824496E-11  0.3263124E+02  0.8316298E-03  0.6315935E-12  0.5204170E-17
  0.3700000E+00  0.1703862E+03  0.4613846E-02 -0.7349897E-06  0.5013590E-10  0.5724865E-04  0.2734983E-05  0.3854291E-07  0.8940404E-11  0.3264782E+02  0.9064356E-03  0.2688540E-12 -0.9540979E-17
  0.3800000E+00  0.1704873E+03  0.5020749E-02  0.4362511E-06  0.3575451E-10  0.4334081E-04  0.2214432E-05  0.8103119E-07  0.5986323E-12  0.3266399E+02  0.9862876E-03  0.1495879E-12 -0.8673617E-18
  0.3900000E+00  0.1705992E+03  0.5452137E-02  0.6758059E-06 -0.5985612E-10  0.5356776E-04  0.3481458E-05  0.2955158E-06  0.9322321E-11  0.3268211E+02  0.1070961E-02 -0.2550666E-12  0.1127570E-16
  0.4000000E+00  0.1707251E+03  0.5911048E-02 -0.1676381E-06 -0.1136300E-09  0.6150454E-04  0.3432405E-05  0.1623994E-06 -0.7673862E-11  0.3270376E+02  0.1161011E-02 -0.6750156E-12 -0.8673617E-17
  0.4100000E+00  0.1708079E+03  0.6396087E-02  0.1249335E-06  0.3228706E-10  0.4496698E-04  0.2714156E-05  0.7354041E-07  0.1531220E-11  0.3272025E+02  0.1256187E-02  0.0000000E+00  0.1301043E-16
  0.4200000E+00  0.1708448E+03  0.6909851E-02 -0.4656613E-07  0.7435119E-10  0.5108083E-04  0.2850239E-05 -0.6485997E-07 -0.4696687E-11  0.3272932E+02  0.1357091E-02 -0.2368476E-12  0.5204170E-17
  0.4300000E+00  0.1708697E+03  0.7451741E-02 -0.8446879E-07  0.1182343E-10  0.4888794E-04  0.3076216E-05  0.1919499E-06  0.7041479E-11  0.3273620E+02  0.1463560E-02 -0.6609700E-13  0.1561251E-16
  0.4400000E+00  0.1708495E+03  0.8022823E-02  0.9800053E-06  0.1261924E-10  0.6436286E-04  0.4086979E-05  0.1964509E-06  0.9869439E-11  0.3273354E+02  0.1575681E-02 -0.3552714E-12 -0.5204170E-17
  0.4500000E+00  0.1708330E+03  0.8625289E-02  0.8899305E-07  0.8571988E-10  0.6303191E-04  0.3267367E-05  0.2358704E-06  0.8704149E-12  0.3273142E+02  0.1693954E-02  0.9473904E-13  0.1734723E-17
  0.4600000E+00  0.1707692E+03  0.9260009E-02 -0.2267568E-06 -0.7560175E-10  0.5668110E-04  0.4254789E-05 -0.5371555E-07  0.4259704E-11  0.3272131E+02  0.1818559E-02 -0.6178632E-13  0.1214306E-16
  0.4700000E+00  0.1706931E+03  0.9928174E-02 -0.8857472E-06  0.1020908E-09  0.5650552E-04  0.3579549E-05 -0.7102573E-07 -0.8490986E-11  0.3271010E+02  0.1949897E-02 -0.1209434E-12  0.6938894E-17
  0.4800000E+00  0.1706261E+03  0.1063192E-01  0.8323696E-06 -0.7958079E-11  0.7934093E-04  0.4914171E-05 -0.5256879E-07 -0.2258460E-10  0.3269942E+02  0.2088027E-02  0.3256654E-12  0.1040834E-16
  0.4900000E+00  0.1705970E+03  0.1137239E-01 -0.8686008E-06 -0.6195933E-10  0.7720474E-04  0.5681480E-05 -0.2812974E-06  0.7688072E-11  0.3269156E+02  0.2233324E-02 -0.3190192E-12  0.1040834E-16
  0.5000000E+00  0.1706133E+03  0.1215228E-01  0.9872019E-06  0.2614797E-11  0.6093085E-04  0.5014504E-05 -0.1944136E-07 -0.3744560E-11  0.3269186E+02  0.2386339E-02  0.0000000E+00  0.6938894E-17
  0.5100000E+00  0.1706667E+03  0.1297315E-01 -0.8418426E-06  0.2864908E-10  0.6850882E-04  0.5791843E-05 -0.8611310E-07 -0.1925571E-11  0.3269982E+02  0.2547331E-02 -0.2229154E-12  0.1561251E-16
  0.5200000E+00  0.1707502E+03  0.1383643E-01 -0.1045947E-05 -0.1227818E-09  0.6610958E-04  0.5124860E-05 -0.1516198E-06  0.1407585E-10  0.3271366E+02  0.2716689E-02 -0.2459571E-12 -0.3469447E-16
  0.5300000E+00  0.1708544E+03  0.1474435E-01  0.8206183E-06  0.1173248E-09  0.6509418E-04  0.5143693E-05 -0.6655442E-07  0.4298784E-11  0.3273182E+02  0.2894747E-02 -0.5630716E-12  0.2081668E-16
  0.5400000E+00  0.1709575E+03  0.1569656E-01 -0.1721222E-05  0.6411938E-10  0.7790686E-04  0.7060701E-05  0.3870809E-06  0.1304556E-10  0.3275139E+02  0.3081637E-02 -0.4210624E-12 -0.3469447E-17
  0.5500000E+00  0.1710442E+03  0.1669595E-01 -0.1280145E-05 -0.8049028E-10  0.7457354E-04  0.6322309E-05  0.1890161E-06  0.1730882E-10  0.3276818E+02  0.3277735E-02  0.2067033E-12  0.4163336E-16
  0.5600000E+00  0.1711522E+03  0.1774437E-01 -0.7184489E-06  0.7958079E-10  0.4396508E-04  0.4720979E-05 -0.3696706E-06  0.3210232E-10  0.3278928E+02  0.3483386E-02 -0.5075305E-13  0.1387779E-16
  0.5700001E+00  0.1712331E+03  0.1883831E-01 -0.2026035E-06  0.1630269E-09  0.6450633E-04  0.5288380E-05  0.1763590E-06 -0.1988809E-10  0.3280414E+02  0.3698020E-02  0.5484890E-12  0.2428613E-16
  0.5800000E+00  0.1713069E+03  0.1998287E-01  0.2681567E-06 -0.1464286E-09  0.7021530E-04  0.5852421E-05  0.3632961E-07 -0.2257394E-10  0.3281757E+02  0.3922573E-02  0.1715103E-12 -0.3469447E-16
  0.5900000E+00  0.1713855E+03  0.2118241E-01  0.7134879E-06 -0.4288268E-09  0.7148138E-04  0.5662479E-05 -0.8025751E-07  0.6175327E-10  0.3283136E+02  0.4157776E-02  0.3131205E-12  0.1040834E-16
  0.6000000E+00  0.1714653E+03  0.2243572E-01  0.5029142E-06 -0.3410605E-10  0.4925454E-04  0.5398202E-05  0.2039208E-06  0.9038104E-11  0.3284522E+02  0.4403431E-02  0.1184238E-12  0.1387779E-16
  0.6100000E+00  0.1715418E+03  0.2374787E-01  0.2836717E-05  0.9322321E-10  0.5777253E-04  0.7072433E-05  0.2189944E-06  0.1433875E-10  0.3285920E+02  0.4660690E-02 -0.2329648E-12  0.1734723E-16
  0.6200000E+00  0.1716181E+03  0.2511727E-01  0.5587935E-06 -0.1482476E-09  0.2989245E-04  0.3677214E-05 -0.5539116E-08  0.1095657E-10  0.3287395E+02  0.4929309E-02  0.8480671E-12  0.2428613E-16
  0.6300000E+00  0.1716730E+03  0.2654555E-01  0.9934107E-06  0.1566605E-09  0.3537252E-04  0.3921779E-05 -0.1565139E-06 -0.3646505E-10  0.3288430E+02  0.5209373E-02 -0.3834675E-12 -0.3122502E-16
  0.6400000E+00  0.1717166E+03  0.2803556E-01  0.1359149E-05  0.2364686E-09  0.4857429E-04  0.4312100E-05  0.6448317E-07  0.2103206E-10  0.3289195E+02  0.5501524E-02  0.4440892E-12  0.6938894E-17
  0.6500000E+00  0.1717555E+03  0.2959420E-01 -0.3166497E-06  0.1255103E-09  0.2309107E-04  0.3151372E-05 -0.1079081E-07 -0.4912692E-10  0.3289913E+02  0.5807052E-02 -0.2623542E-12  0.1318390E-15
  0.6600000E+00  0.1717990E+03  0.3122070E-01  0.4938832E-06 -0.1305125E-09  0.4164423E-04  0.3855414E-05 -0.2541293E-06 -0.2373213E-11  0.3290702E+02  0.6125882E-02  0.2368476E-12 -0.4163336E-16
  0.6700001E+00  0.1718419E+03  0.3291784E-01 -0.1294121E-05 -0.8594725E-10  0.3820924E-04  0.6377586E-05 -0.1234524E-06 -0.1050182E-10  0.3291449E+02  0.6458553E-02 -0.1484716E-12  0.0000000E+00
  0.6800001E+00  0.1718810E+03  0.3469295E-01  0.7875153E-06 -0.1409717E-10  0.6259582E-04  0.7293098E-05  0.8024952E-07  0.7625545E-10  0.3292167E+02  0.6806373E-02 -0.1044916E-12  0.4857226E-16
  0.6900001E+00  0.1719229E+03  0.3654396E-01 -0.9394209E-06  0.2105480E-09  0.6568387E-04  0.6855515E-05 -0.5673137E-07 -0.1959677E-10  0.3292989E+02  0.7169180E-02 -0.2059544E-13 -0.8326673E-16
  0.7000000E+00  0.1719406E+03  0.3847511E-01 -0.5654459E-06 -0.1077751E-09  0.6843891E-04  0.7910783E-05  0.9816306E-07 -0.6292566E-10  0.3293485E+02  0.7547781E-02 -0.8120489E-13  0.7632783E-16
  0.7100000E+00  0.1719330E+03  0.4049136E-01 -0.9470633E-06  0.1809894E-09  0.8184096E-04  0.9239475E-05 -0.5369862E-07  0.3514344E-10  0.3293539E+02  0.7943098E-02 -0.1601223E-12 -0.6938894E-17
  0.7200000E+00  0.1719152E+03  0.4259489E-01  0.1787622E-05  0.1541594E-09  0.3175810E-04  0.6174807E-05 -0.3088240E-07  0.1142553E-10  0.3293436E+02  0.8355367E-02 -0.5131697E-12  0.5551115E-16
  0.7300000E+00  0.1719020E+03  0.4479139E-01  0.2194349E-06  0.9094947E-11  0.4407069E-04  0.5636424E-05 -0.2124181E-06 -0.9947598E-12  0.3293437E+02  0.8786156E-02 -0.3893385E-13  0.2081668E-16
  0.7400000E+00  0.1719092E+03  0.4706005E-01  0.1359227E-06  0.2692104E-09  0.5241584E-04  0.8573767E-05 -0.2831724E-08  0.4553158E-10  0.3293596E+02  0.9230917E-02 -0.1920386E-12  0.4163336E-16
  0.7500000E+00  0.1719279E+03  0.4942786E-01  0.3998478E-06 -0.2519300E-09  0.5690257E-04  0.8054936E-05 -0.1386895E-06  0.3154810E-10  0.3293859E+02  0.9694763E-02  0.3789561E-12  0.1665335E-15
  0.7600000E+00  0.1719649E+03  0.5189767E-01  0.2499866E-06  0.1768967E-09  0.4138994E-04  0.5533908E-05  0.9857008E-07  0.9293899E-11  0.3294430E+02  0.1017850E-01  0.0000000E+00  0.7632783E-16
  0.7700000E+00  0.1720214E+03  0.5447345E-01  0.1521563E-05 -0.1045919E-10  0.3277288E-04  0.4960952E-05  0.8360737E-07 -0.1412559E-10  0.3295369E+02  0.1068297E-01 -0.1476452E-12 -0.8326673E-16
  0.7800000E+00  0.1720863E+03  0.5715857E-01  0.2025030E-05  0.3237801E-09  0.2558988E-04  0.5205886E-05  0.4484975E-07  0.1847411E-10  0.3296489E+02  0.1120875E-01 -0.1821905E-12 -0.4163336E-16
  0.7900000E+00  0.1721657E+03  0.5995742E-01 -0.6035913E-06 -0.2455636E-09  0.3312207E-04  0.6502691E-05 -0.1555397E-06 -0.5596235E-10  0.3297911E+02  0.1175663E-01  0.3957453E-12  0.2775558E-16
  0.8000000E+00  0.1722563E+03  0.6286620E-01 -0.8125789E-06  0.3828973E-09  0.3274530E-04  0.6389091E-05  0.8869392E-07  0.3538503E-10  0.3299591E+02  0.1232618E-01 -0.2131628E-12 -0.8326673E-16
  0.8099999E+00  0.1723537E+03  0.6588811E-01  0.4300181E-06 -0.4547474E-09  0.3636068E-04  0.6271410E-05  0.1573044E-06 -0.7787548E-11  0.3301397E+02  0.1291781E-01 -0.2807083E-12  0.8326673E-16
  0.8200001E+00  0.1724369E+03  0.6902622E-01  0.2294233E-06  0.1255103E-09  0.4433095E-04  0.6861574E-05 -0.2494411E-06 -0.4521894E-10  0.3302856E+02  0.1353206E-01 -0.4505880E-12  0.5551115E-16
  0.8300000E+00  0.1725306E+03  0.7229251E-01  0.1099634E-06  0.2137313E-09  0.2747738E-04  0.5838938E-05 -0.1517607E-06 -0.1620037E-10  0.3304487E+02  0.1417124E-01 -0.4451593E-12  0.9714451E-16
  0.8400000E+00  0.1726268E+03  0.7569446E-01  0.1137544E-05 -0.7330527E-09  0.4022427E-04  0.5320064E-05  0.2076073E-06 -0.7020162E-11  0.3306184E+02  0.1483699E-01  0.4398598E-12  0.4163336E-16
  0.8500000E+00  0.1727466E+03  0.7923575E-01 -0.5412628E-06  0.3601599E-09  0.1455931E-04  0.2173467E-05 -0.4766180E-07 -0.9060841E-10  0.3308314E+02  0.1552976E-01 -0.4681223E-12  0.4163336E-16
  0.8600000E+00  0.1728543E+03  0.8292199E-01 -0.5371349E-06  0.1009539E-09  0.3127511E-05  0.2722671E-05 -0.2184141E-06  0.1045919E-09  0.3310193E+02  0.1625087E-01  0.1982910E-12 -0.1249001E-15
  0.8700000E+00  0.1729705E+03  0.8676321E-01 -0.3404145E-06  0.6330083E-09  0.3216595E-04  0.4884670E-05 -0.6831037E-07  0.6167511E-10  0.3312235E+02  0.1700206E-01 -0.6533726E-13  0.1387779E-16
  0.8800000E+00  0.1730949E+03  0.9076197E-01  0.1248819E-06  0.8094503E-10 -0.5435537E-05  0.7820126E-06  0.7209812E-07 -0.8088819E-10  0.3314438E+02  0.1778414E-01  0.1291896E-12  0.0000000E+00
  0.8900001E+00  0.1732228E+03  0.9492716E-01 -0.5085648E-06 -0.3165042E-09  0.5022863E-07  0.3071982E-05  0.2877682E-08  0.1784883E-10  0.3316722E+02  0.1859858E-01 -0.1596725E-12  0.1665335E-15
  0.9000000E+00  0.1733325E+03  0.9926274E-01 -0.3394154E-06 -0.5802576E-09  0.1648234E-04  0.5036942E-05  0.2541088E-06 -0.1037961E-09  0.3318769E+02  0.1944646E-01  0.2210578E-12 -0.4163336E-15
  0.9100001E+00  0.1734340E+03  0.1037774E+00 -0.8003233E-06 -0.8985808E-09  0.2093531E-04  0.4792761E-05 -0.3038312E-07  0.2847855E-10  0.3320688E+02  0.2032944E-01 -0.6246529E-13 -0.1526557E-15
  0.9200000E+00  0.1735239E+03  0.1084825E+00 -0.3174595E-05  0.4311005E-09  0.1687718E-04  0.5486596E-05 -0.8509707E-07  0.3285550E-10  0.3322407E+02  0.2124971E-01 -0.3089316E-12 -0.2775558E-16
  0.9300001E+00  0.1736302E+03  0.1133793E+00  0.4246029E-06  0.8003553E-10  0.2497146E-04  0.6290160E-05 -0.4975816E-07 -0.1040235E-10  0.3324450E+02  0.2220730E-01  0.1833658E-12 -0.2775558E-16
  0.9400001E+00  0.1737242E+03  0.1184558E+00  0.6895749E-06  0.8403731E-09  0.4972073E-04  0.9025942E-05  0.1683687E-06  0.3689138E-10  0.3326271E+02  0.2320068E-01 -0.9070757E-13 -0.3608225E-15
  0.9500000E+00  0.1738060E+03  0.1237049E+00 -0.7646648E-07  0.3274181E-09  0.1978717E-04  0.7909170E-05 -0.2933053E-06  0.1271587E-09  0.3327849E+02  0.2422737E-01 -0.5983518E-13  0.0000000E+00
  0.9600000E+00  0.1738836E+03  0.1291559E+00  0.1872347E-05  0.1818989E-10  0.3119155E-04  0.7946022E-05 -0.1927523E-06 -0.8225243E-10  0.3329340E+02  0.2529307E-01 -0.2960595E-12 -0.5551115E-16
  0.9700000E+00  0.1739617E+03  0.1348289E+00 -0.4147746E-06 -0.6821210E-09  0.3092375E-04  0.6351620E-05  0.2282700E-06 -0.2148681E-09  0.3330848E+02  0.2640230E-01  0.5860146E-13  0.2775558E-16
  0.9800000E+00  0.1740368E+03  0.1407404E+00 -0.2008996E-05 -0.1618901E-09 -0.5321843E-07  0.4538699E-05 -0.1497362E-06  0.2056026E-09  0.3332283E+02  0.2755775E-01  0.2900174E-12  0.3053113E-15
  0.9900000E+00  0.1741091E+03  0.1468809E+00  0.2050791E-06  0.7639755E-10  0.6065826E-05  0.2916597E-05  0.9542529E-07  0.6525624E-10  0.3333624E+02  0.2875798E-01  0.2296704E-12  0.1110223E-15
  0.1000000E+01  0.1741611E+03  0.1532763E+00  0.2048910E-06 -0.5147740E-09  0.1522899E-04  0.2802946E-05 -0.1018634E-06 -0.1198828E-09  0.3334637E+02  0.3000791E-01  0.8526513E-13 -0.1942890E-15
  0.1010000E+01  0.1742204E+03  0.1599132E+00  0.5348189E-07 -0.1473381E-08  0.2577458E-04  0.7436414E-05 -0.1866103E-06  0.2725642E-09  0.3335810E+02  0.3130475E-01 -0.8160689E-12 -0.1942890E-15
  0.1020000E+01  0.1742730E+03  0.1667870E+00  0.7194923E-06 -0.1349690E-08  0.3005068E-04  0.5772214E-05 -0.1654353E-06 -0.2603429E-10  0.3336907E+02  0.3264794E-01 -0.6130173E-12  0.5551115E-16
  0.1030000E+01  0.1743914E+03  0.1738899E+00 -0.1128437E-05  0.5456968E-10  0.5080862E-04  0.1280687E-04 -0.3283364E-07 -0.2728484E-11  0.3339193E+02  0.3403605E-01  0.4415023E-12  0.1110223E-15
  0.1040000E+01  0.1744305E+03  0.1812550E+00 -0.4119312E-06  0.2983143E-09  0.4814938E-04  0.1381634E-04  0.1115460E-06  0.1534772E-10  0.3339980E+02  0.3547515E-01  0.1913000E-12 -0.2775558E-16
  0.1050000E+01  0.1744662E+03  0.1888974E+00  0.2781550E-05 -0.1011358E-08  0.5776684E-04  0.1340303E-04 -0.3337239E-07  0.1158469E-09  0.3340681E+02  0.3696814E-01 -0.5413659E-13  0.5551115E-16
  0.1060000E+01  0.1745007E+03  0.1968382E+00  0.1245864E-05  0.4620233E-09  0.7529304E-04  0.1891097E-04  0.2151487E-06  0.7059953E-10  0.3341371E+02  0.3851917E-01  0.4826328E-12 -0.5551115E-15
  0.1070000E+01  0.1745333E+03  0.2050924E+00 -0.7746514E-06 -0.2983143E-09  0.3903547E-04  0.1082130E-04 -0.1417112E-06  0.1921308E-10  0.3342055E+02  0.4013151E-01  0.7968703E-12 -0.2498002E-15
  0.1080000E+01  0.1745811E+03  0.2136725E+00 -0.7485074E-06 -0.1195076E-08  0.4579347E-04  0.1122689E-04 -0.7545437E-08  0.8856205E-10  0.3342984E+02  0.4180697E-01  0.2368476E-12  0.6383782E-15
  0.1090000E+01  0.1746485E+03  0.2225997E+00 -0.7211341E-06  0.2964953E-09  0.3388305E-04  0.6521557E-05 -0.8923394E-07  0.1321041E-09  0.3344139E+02  0.4354947E-01  0.0000000E+00 -0.1110223E-15
  0.1100000E+01  0.1747278E+03  0.2318901E+00 -0.6976452E-06 -0.2935849E-08  0.6147406E-04  0.1412646E-04  0.5471520E-07 -0.3229843E-09  0.3345460E+02  0.4536244E-01 -0.1033517E-12 -0.3885781E-15
  0.1110000E+01  0.1748205E+03  0.2415598E+00  0.3607826E-06 -0.4183676E-09  0.4438130E-04  0.1061041E-04 -0.2281111E-07 -0.4048388E-09  0.3346995E+02  0.4724868E-01 -0.2560514E-13 -0.4996004E-15
  0.1120000E+01  0.1749293E+03  0.2516241E+00 -0.1002835E-05  0.3165042E-09  0.6213917E-04  0.1587793E-04 -0.1969706E-06 -0.9288215E-10  0.3348871E+02  0.4921196E-01 -0.1268826E-12  0.2220446E-15
  0.1130000E+01  0.1750434E+03  0.2621016E+00 -0.1051653E-05  0.1695298E-08  0.8149484E-04  0.1931470E-04 -0.6155589E-07  0.3573177E-09  0.3350938E+02  0.5125589E-01 -0.3269754E-12  0.1665335E-15
  0.1140000E+01  0.1751500E+03  0.2730010E+00  0.4084748E-07 -0.2517481E-08  0.6938190E-04  0.1864179E-04  0.2935913E-07  0.4115464E-10  0.3352896E+02  0.5338229E-01 -0.1072047E-11 -0.1110223E-15
  0.1150000E+01  0.1752597E+03  0.2843486E+00 -0.7223824E-06  0.5093170E-10  0.7169403E-04  0.2048870E-04  0.2465474E-06 -0.4899903E-10  0.3354927E+02  0.5559592E-01  0.4201470E-12  0.3330669E-15
  0.1160000E+01  0.1753732E+03  0.2961780E+00 -0.8783335E-06 -0.8803909E-09  0.6581561E-04  0.1477687E-04  0.2589237E-07  0.2660272E-10  0.3357037E+02  0.5790321E-01  0.2450148E-12 -0.3885781E-15
  0.1170000E+01  0.1754936E+03  0.3084764E+00  0.4537213E-06 -0.1000444E-08  0.4656295E-04  0.1625539E-04 -0.1691007E-06 -0.3570904E-09  0.3359299E+02  0.6030203E-01  0.2186285E-12 -0.5551115E-15
  0.1180000E+01  0.1756224E+03  0.3212356E+00 -0.1373306E-05 -0.3194145E-08  0.3934286E-04  0.1363529E-04  0.1970181E-06 -0.2091838E-10  0.3361712E+02  0.6279187E-01  0.3853791E-12 -0.8326673E-15
  0.1190000E+01  0.1757460E+03  0.3344235E+00  0.2613964E-06 -0.1527951E-09  0.3415371E-04  0.1026684E-04 -0.9626275E-07  0.2626166E-10  0.3363993E+02  0.6536476E-01  0.3104892E-12 -0.2775558E-15
  0.1200000E+01  0.1758681E+03  0.3481181E+00  0.2949188E-07 -0.3055902E-09  0.2281740E-04  0.9206444E-05 -0.9526654E-07  0.2386287E-09  0.3366222E+02  0.6803481E-01  0.2368476E-13 -0.5551115E-15
  0.1210000E+01  0.1759975E+03  0.3623627E+00 -0.3032571E-06 -0.1604349E-08  0.1952545E-04  0.7642899E-05  0.1721696E-06 -0.2014531E-09  0.3368599E+02  0.7081155E-01 -0.1409341E-12 -0.2775558E-15
  0.1220000E+01  0.1761334E+03  0.3771923E+00 -0.5007767E-06  0.1236913E-09  0.1493170E-04  0.6996881E-05 -0.2596443E-06  0.8708412E-10  0.3371071E+02  0.7370167E-01  0.3727437E-12  0.4440892E-15
  0.1230000E+01  0.1762771E+03  0.3926324E+00  0.2483527E-06  0.1477019E-08  0.1537969E-04  0.7140334E-05  0.4547769E-07  0.1068656E-09  0.3373659E+02  0.7671004E-01  0.2310708E-13 -0.1387779E-14
  0.1240000E+01  0.1764204E+03  0.4087070E+00 -0.1847624E-06  0.1655280E-08  0.3362976E-04  0.1031870E-04  0.6975531E-07  0.4918093E-09  0.3376239E+02  0.7984188E-01 -0.1146037E-12  0.5551115E-16
  0.1250000E+01  0.1765697E+03  0.4254275E+00 -0.1333654E-05 -0.1236913E-08  0.4333258E-04  0.1368433E-04 -0.3186986E-06 -0.7946710E-09  0.3378955E+02  0.8309883E-01  0.1591616E-12  0.7216450E-15
  0.1260000E+01  0.1767247E+03  0.4427839E+00  0.4272258E-06 -0.1142325E-08  0.6142590E-04  0.1604998E-04  0.9784431E-07  0.2603429E-09  0.3381796E+02  0.8647787E-01  0.2030122E-12 -0.1110223E-15
  0.1270000E+01  0.1768815E+03  0.4607422E+00 -0.1058921E-05  0.1280569E-08  0.3526413E-04  0.1171319E-04  0.5192857E-07 -0.8569714E-09  0.3384697E+02  0.8997481E-01 -0.1342758E-12  0.6661338E-15
  0.1280000E+01  0.1770442E+03  0.4792934E+00 -0.5209586E-06 -0.2735760E-08  0.5180482E-04  0.1549919E-04 -0.6079972E-07 -0.9231371E-10  0.3387724E+02  0.9358852E-01 -0.3996803E-12  0.1110223E-14
  0.1290000E+01  0.1771872E+03  0.4984608E+00 -0.9890790E-06  0.4802132E-08  0.3683128E-04  0.9701092E-05  0.9110176E-07  0.3185505E-09  0.3390335E+02  0.9732138E-01 -0.7931640E-12  0.7771561E-15
  0.1300000E+01  0.1773294E+03  0.5183171E+00  0.6060761E-06  0.6999471E-08  0.2987683E-04  0.1135241E-04 -0.1252360E-06  0.3540208E-09  0.3392892E+02  0.1011867E+00 -0.2842171E-12 -0.9992007E-15
  0.1310000E+01  0.1774783E+03  0.5389229E+00 -0.1538460E-05  0.2881279E-08  0.1467366E-04  0.7327151E-05 -0.4612180E-07  0.3631158E-09  0.3395564E+02  0.1051967E+00  0.6508789E-13 -0.4440892E-15
  0.1320000E+01  0.1776280E+03  0.5603444E+00  0.6491036E-07 -0.5165930E-09  0.1163306E-04  0.6050919E-05  0.1869700E-07  0.2778506E-09  0.3398280E+02  0.1093649E+00 -0.6459479E-12 -0.2331468E-14
  0.1330000E+01  0.1777803E+03  0.5825893E+00  0.8991114E-06 -0.4052708E-08  0.2508549E-04  0.9532348E-05  0.3137962E-07 -0.8965344E-09  0.3401051E+02  0.1136932E+00  0.2991759E-12 -0.8881784E-15
  0.1340000E+01  0.1779393E+03  0.6056916E+00 -0.6741663E-06 -0.1957233E-08  0.2479820E-04  0.7876515E-05 -0.2141521E-07  0.4006324E-09  0.3403952E+02  0.1181873E+00  0.2333125E-12  0.5551115E-15
  0.1350000E+01  0.1780863E+03  0.6297274E+00  0.1076195E-06  0.4991307E-08  0.2737398E-04  0.8920237E-05  0.3496771E-07  0.2846718E-09  0.3406627E+02  0.1228625E+00  0.2947436E-12  0.9992007E-15
  0.1360000E+01  0.1782381E+03  0.6546980E+00  0.8217552E-08  0.1578883E-08  0.3268394E-04  0.6569258E-05 -0.1412392E-07  0.3599325E-09  0.3409405E+02  0.1277189E+00  0.8359326E-13  0.3330669E-15
  0.1370000E+01  0.1783930E+03  0.6806519E+00 -0.1019696E-06 -0.1891749E-08 -0.6308521E-06  0.1746666E-05 -0.2395012E-06  0.1266471E-08  0.3412250E+02  0.1327664E+00  0.1659662E-12 -0.7771561E-15
  0.1380000E+01  0.1785520E+03  0.7076309E+00  0.7801514E-06 -0.5959009E-08 -0.1129465E-04 -0.5391950E-05  0.6326920E-07  0.3688001E-09  0.3415199E+02  0.1380122E+00 -0.4530997E-12  0.8881784E-15
  0.1390000E+01  0.1787074E+03  0.7356997E+00 -0.3162477E-06  0.3157766E-08 -0.2694001E-04 -0.9883835E-05 -0.7127298E-07 -0.5188667E-09  0.3418102E+02  0.1434701E+00 -0.1635782E-12  0.1776357E-14
  0.1400000E+01  0.1788425E+03  0.7648292E+00  0.4683222E-06  0.7807103E-08 -0.1186771E-04 -0.3508118E-05 -0.1203235E-06  0.1099124E-08  0.3420696E+02  0.1491349E+00  0.4466269E-12 -0.6661338E-15
  0.1410000E+01  0.1789687E+03  0.7951551E+00  0.1014547E-05 -0.2655725E-08 -0.2010072E-04 -0.7018505E-05  0.8347227E-07 -0.3483365E-09  0.3423143E+02  0.1550320E+00 -0.1612579E-12  0.1887379E-14
  0.1420000E+01  0.1790908E+03  0.8266549E+00  0.2256162E-06  0.3681635E-08 -0.3195355E-04 -0.1604762E-04 -0.1294506E-06  0.5047696E-10  0.3425506E+02  0.1611564E+00 -0.1601223E-12 -0.2442491E-14
  0.1430000E+01  0.1792099E+03  0.8594694E+00  0.1094141E-05  0.1295120E-08 -0.1932983E-04 -0.1083838E-04  0.1643654E-06  0.4683898E-10  0.3427854E+02  0.1675370E+00  0.1192519E-12  0.2442491E-14
  0.1440000E+01  0.1793319E+03  0.8935366E+00 -0.1810905E-07 -0.1000444E-07 -0.3255490E-04 -0.1778489E-04 -0.9765952E-07  0.2910383E-09  0.3430276E+02  0.1741620E+00  0.2368476E-12  0.1332268E-14
  0.1450000E+01  0.1794491E+03  0.9287801E+00 -0.1258891E-06  0.4612957E-08 -0.4976988E-04 -0.1943501E-04  0.3115916E-06 -0.5888978E-09  0.3432592E+02  0.1810178E+00 -0.1176071E-12  0.8881784E-15
  0.1460000E+01  0.1795451E+03  0.9653036E+00 -0.3776321E-06  0.5849870E-08 -0.4088633E-04 -0.1325697E-04 -0.2221459E-06 -0.1008175E-08  0.3434510E+02  0.1881203E+00 -0.1168015E-12 -0.3330669E-14
  0.1470000E+01  0.1796327E+03  0.1003209E+01 -0.5828686E-06  0.7421477E-09 -0.3896603E-04 -0.1741562E-04 -0.7206663E-07  0.1904027E-08  0.3436262E+02  0.1954880E+00  0.3866899E-13  0.3774758E-14
  0.1480000E+01  0.1797229E+03  0.1042580E+01  0.1485082E-06 -0.1167064E-07 -0.6971327E-04 -0.2941361E-04  0.9494141E-07  0.1320586E-08  0.3438076E+02  0.2031400E+00 -0.7681543E-13  0.4440892E-14
  0.1490000E+01  0.1798120E+03  0.1083503E+01 -0.2050160E-06  0.5791662E-08 -0.8821688E-04 -0.3453688E-04  0.4297210E-08  0.4997673E-09  0.3439847E+02  0.2110928E+00 -0.3051996E-12  0.0000000E+00
  0.1500000E+01  0.1799039E+03  0.1126184E+01 -0.1341105E-06 -0.4059984E-08 -0.5004803E-04 -0.2075674E-04 -0.5875093E-07 -0.1152785E-08  0.3441641E+02  0.2193855E+00  0.1136868E-12 -0.4440892E-15
  0.1510000E+01  0.1800186E+03  0.1170565E+01  0.3971998E-06 -0.3987225E-08 -0.4838437E-04 -0.1929136E-04 -0.4964998E-07  0.3683454E-10  0.3443755E+02  0.2280046E+00  0.1129339E-12  0.1554312E-14
  0.1520000E+01  0.1801485E+03  0.1216730E+01  0.5587935E-06 -0.5587935E-08 -0.6443772E-04 -0.2914370E-04  0.6219029E-07 -0.1983608E-08  0.3446087E+02  0.2369667E+00 -0.2243819E-12 -0.3552714E-14
  0.1530000E+01  0.1802886E+03  0.1264645E+01  0.1521769E-05  0.4612957E-08 -0.8572551E-04 -0.2831937E-04 -0.2668422E-06  0.5097718E-09  0.3448585E+02  0.2462622E+00  0.3715256E-13  0.1110223E-14
  0.1540000E+01  0.1804424E+03  0.1314128E+01  0.7813434E-06 -0.1012813E-07 -0.8256598E-04 -0.4011375E-04 -0.1259402E-06  0.3565219E-09  0.3451342E+02  0.2558601E+00 -0.2214679E-12 -0.2220446E-15
  0.1550000E+01  0.1806077E+03  0.1365142E+01  0.8652287E-07 -0.5980837E-08 -0.6396924E-04 -0.3278110E-04 -0.1089047E-06  0.2668003E-08  0.3454378E+02  0.2657616E+00 -0.2200390E-12  0.1332268E-14
  0.1560000E+01  0.1807739E+03  0.1417710E+01 -0.1428028E-05 -0.1194712E-07 -0.6851669E-04 -0.3773224E-04 -0.4552138E-07 -0.2610250E-09  0.3457422E+02  0.2759652E+00 -0.4736952E-12  0.6661338E-15
  0.1570000E+01  0.1809350E+03  0.1471982E+01  0.3559195E-07 -0.1542503E-08 -0.1015936E-03 -0.4702294E-04 -0.1362133E-06 -0.5447873E-09  0.3460311E+02  0.2864914E+00 -0.5430900E-12  0.2220446E-15
  0.1580000E+01  0.1811026E+03  0.1528236E+01 -0.6931869E-06  0.8643838E-08 -0.8584200E-04 -0.5186559E-04  0.1894328E-06  0.5566108E-09  0.3463302E+02  0.2973994E+00  0.3597685E-12 -0.2664535E-14
  0.1590000E+01  0.1812561E+03  0.1586592E+01 -0.1447943E-05 -0.1213630E-07 -0.9426156E-04 -0.4727370E-04 -0.3258165E-07  0.3314199E-08  0.3466061E+02  0.3087133E+00 -0.6435104E-12 -0.1776357E-14
  0.1600000E+01  0.1814449E+03  0.1647024E+01  0.1378357E-05  0.4627509E-08 -0.7580034E-04 -0.4193687E-04 -0.4860340E-07 -0.5338734E-09  0.3469443E+02  0.3204245E+00  0.4618528E-12  0.3108624E-14
  0.1610000E+01  0.1816815E+03  0.1709554E+01  0.4326890E-06  0.2712477E-07 -0.1186540E-03 -0.6437744E-04  0.5668920E-07  0.2068191E-08  0.3473672E+02  0.3325382E+00 -0.1765324E-12  0.0000000E+00
  0.1620000E+01  0.1818925E+03  0.1774569E+01  0.1471720E-06  0.1346052E-07 -0.1002793E-03 -0.6154226E-04  0.4290120E-07 -0.2844899E-08  0.3477467E+02  0.3451331E+00 -0.1052656E-12 -0.1776357E-14
  0.1630000E+01  0.1821035E+03  0.1841980E+01 -0.4136672E-06 -0.2823072E-08 -0.1036316E-03 -0.5455129E-04  0.2486860E-06  0.2588422E-08  0.3481233E+02  0.3581889E+00  0.1046198E-12  0.8881784E-15
  0.1640000E+01  0.1823245E+03  0.1911889E+01 -0.2112512E-06 -0.1688022E-08 -0.1072793E-03 -0.6035308E-04  0.1846319E-06 -0.1465196E-08  0.3485207E+02  0.3717263E+00 -0.3466062E-13 -0.4440892E-14
  0.1650000E+01  0.1825560E+03  0.1984429E+01 -0.2257752E-08  0.1949957E-08 -0.1023665E-03 -0.5472149E-04 -0.2474355E-06 -0.3452442E-08  0.3489371E+02  0.3857705E+00 -0.6890112E-13 -0.2220446E-14