 VARIABLES="Time (s)"
"AddedMass    1" "IRF    1"
"AddedMass    2" "IRF    2"
"AddedMass    3" "IRF    3"
"AddedMass    4" "IRF    4"
"AddedMass    5" "IRF    5"
"AddedMass    6" "IRF    6"
Zone t="DoF    1",I=   100,F=POINT
  0.0000000E+00  0.3458647E+03  0.3878414E+01  0.1756649E-07 -0.7540377E-08  0.1552673E-04  0.3000147E-04 -0.4331071E-07 -0.5166293E-09 -0.6098758E+02 -0.4979395E+00 -0.7479277E-06 -0.9557137E-08
  0.1000000E+00  0.3458647E+03  0.3819093E+01  0.1756649E-07 -0.7416757E-08  0.1552673E-04  0.2959272E-04 -0.4331071E-07 -0.5051014E-09 -0.6098758E+02 -0.4902932E+00 -0.7479277E-06 -0.9548279E-08
  0.2000000E+00  0.3458647E+03  0.3643066E+01  0.1756649E-07 -0.7050147E-08  0.1552673E-04  0.2837756E-04 -0.4331071E-07 -0.4709741E-09 -0.6098758E+02 -0.4676048E+00 -0.7479277E-06 -0.9519586E-08
  0.3000000E+00  0.3458647E+03  0.3356083E+01  0.1756649E-07 -0.6453152E-08  0.1552673E-04  0.2638893E-04 -0.4331071E-07 -0.4155991E-09 -0.6098758E+02 -0.4306170E+00 -0.7479277E-06 -0.9464819E-08
  0.4000000E+00  0.3458647E+03  0.2967511E+01  0.1756649E-07 -0.5646281E-08  0.1552673E-04  0.2368081E-04 -0.4331071E-07 -0.3411710E-09 -0.6098758E+02 -0.3805401E+00 -0.7479277E-06 -0.9373895E-08
  0.5000000E+00  0.3458647E+03  0.2490009E+01  0.1756649E-07 -0.4657227E-08  0.1552673E-04  0.2032675E-04 -0.4331071E-07 -0.2506420E-09 -0.6098758E+02 -0.3190099E+00 -0.7479277E-06 -0.9233286E-08
  0.6000000E+00  0.3458647E+03  0.1939109E+01  0.1756649E-07 -0.3519887E-08  0.1552673E-04  0.1641791E-04 -0.4331071E-07 -0.1476087E-09 -0.6098758E+02 -0.2480327E+00 -0.7479277E-06 -0.9026704E-08
  0.7000000E+00  0.3458647E+03  0.1332682E+01  0.1756649E-07 -0.2273163E-08  0.1552673E-04  0.1206069E-04 -0.4331071E-07 -0.3617250E-10 -0.6098758E+02 -0.1699171E+00 -0.7479277E-06 -0.8735793E-08
  0.8000000E+00  0.3458647E+03  0.6903377E+00  0.1756649E-07 -0.9595944E-09  0.1552673E-04  0.7373847E-05 -0.4331071E-07  0.7921950E-10 -0.6098758E+02 -0.8719561E-01 -0.7479277E-06 -0.8341038E-08
  0.9000000E+00  0.3458647E+03  0.3275893E-01  0.1756649E-07  0.3761392E-09  0.1552673E-04  0.2485371E-05 -0.4331071E-07  0.1939456E-09 -0.6098758E+02 -0.2539239E-02 -0.7479277E-06 -0.7822759E-08
  0.1000000E+01  0.3458647E+03 -0.6189896E+00  0.1756649E-07  0.1688788E-08  0.1552673E-04 -0.2470979E-05 -0.4331071E-07  0.3033888E-09 -0.6098758E+02  0.8133265E-01 -0.7479277E-06 -0.7162151E-08
  0.1100000E+01  0.3458647E+03 -0.1244172E+01  0.1756649E-07  0.2934121E-08  0.1552673E-04 -0.7359271E-05 -0.4331071E-07  0.4031152E-09 -0.6098758E+02  0.1617438E+00 -0.7479277E-06 -0.6342395E-08
  0.1200000E+01  0.3458647E+03 -0.1823068E+01  0.1756649E-07  0.4070463E-08  0.1552673E-04 -0.1204508E-04 -0.4331071E-07  0.4890455E-09 -0.6098758E+02  0.2361503E+00 -0.7479277E-06 -0.5349779E-08
  0.1300000E+01  0.3458647E+03 -0.2337633E+01  0.1756649E-07  0.5060149E-08  0.1552673E-04 -0.1639914E-04 -0.4331071E-07  0.5576130E-09 -0.6098758E+02  0.3022251E+00 -0.7479277E-06 -0.4174751E-08
  0.1400000E+01  0.3458647E+03 -0.2772083E+01  0.1756649E-07  0.5870822E-08  0.1552673E-04 -0.2030091E-04 -0.4331071E-07  0.6059021E-09 -0.6098758E+02  0.3579348E+00 -0.7479277E-06 -0.2812939E-08
  0.1500000E+01  0.3458647E+03 -0.3113415E+01  0.1756649E-07  0.6476549E-08  0.1552673E-04 -0.2364192E-04 -0.4331071E-07  0.6317612E-09 -0.6098758E+02  0.4016057E+00 -0.7479277E-06 -0.1266050E-08
  0.1600000E+01  0.3458647E+03 -0.3351818E+01  0.1756649E-07  0.6858684E-08  0.1552673E-04 -0.2632878E-04 -0.4331071E-07  0.6338867E-09 -0.6098758E+02  0.4319775E+00 -0.7479277E-06  0.4573660E-09
  0.1700000E+01  0.3458647E+03 -0.3480973E+01  0.1756649E-07  0.7006491E-08  0.1552673E-04 -0.2828587E-04 -0.4331071E-07  0.6118747E-09 -0.6098758E+02  0.4482419E+00 -0.7479277E-06  0.2341392E-08
  0.1800000E+01  0.3458647E+03 -0.3498239E+01  0.1756649E-07  0.6917466E-08  0.1552673E-04 -0.2945747E-04 -0.4331071E-07  0.5662378E-09 -0.6098758E+02  0.4500663E+00 -0.7479277E-06  0.4362350E-08
  0.1900000E+01  0.3458647E+03 -0.3404705E+01  0.1756649E-07  0.6597378E-08  0.1552673E-04 -0.2980950E-04 -0.4331071E-07  0.4983874E-09 -0.6098758E+02  0.4376002E+00 -0.7479277E-06  0.6488759E-08
  0.2000000E+01  0.3458647E+03 -0.3205115E+01  0.1756649E-07  0.6059999E-08  0.1552673E-04 -0.2933054E-04 -0.4331071E-07  0.4105814E-09 -0.6098758E+02  0.4114657E+00 -0.7479277E-06  0.8681503E-08
  0.2100000E+01  0.3458647E+03 -0.2907673E+01  0.1756649E-07  0.5326569E-08  0.1552673E-04 -0.2803230E-04 -0.4331071E-07  0.3058398E-09 -0.6098758E+02  0.3727314E+00 -0.7479277E-06  0.1089431E-07
  0.2200000E+01  0.3458647E+03 -0.2523726E+01  0.1756649E-07  0.4424984E-08  0.1552673E-04 -0.2594948E-04 -0.4331071E-07  0.1878323E-09 -0.6098758E+02  0.3228718E+00 -0.7479277E-06  0.1307450E-07
  0.2300000E+01  0.3458647E+03 -0.2067341E+01  0.1756649E-07  0.3388754E-08  0.1552673E-04 -0.2313889E-04 -0.4331071E-07  0.6073970E-10 -0.6098758E+02  0.2637123E+00 -0.7479277E-06  0.1516417E-07
  0.2400000E+01  0.3458647E+03 -0.1554801E+01  0.1756649E-07  0.2255770E-08  0.1552673E-04 -0.1967806E-04 -0.4331071E-07 -0.7090275E-10 -0.6098758E+02  0.1973629E+00 -0.7479277E-06  0.1710144E-07
  0.2500000E+01  0.3458647E+03 -0.1004024E+01  0.1756649E-07  0.1066923E-08  0.1552673E-04 -0.1566315E-04 -0.4331071E-07 -0.2023730E-09 -0.6098758E+02  0.1261443E+00 -0.7479277E-06  0.1882219E-07
  0.2600000E+01  0.3458647E+03 -0.4339293E+00  0.1756649E-07 -0.1353802E-09  0.1552673E-04 -0.1120635E-04 -0.4331071E-07 -0.3289422E-09 -0.6098758E+02  0.5250447E-01 -0.7479277E-06  0.2026187E-07
  0.2700000E+01  0.3458647E+03  0.1362131E+00  0.1756649E-07 -0.1308742E-08  0.1552673E-04 -0.6432832E-05 -0.4331071E-07 -0.4460457E-09 -0.6098758E+02 -0.2106489E-01 -0.7479277E-06  0.2135761E-07
  0.2800000E+01  0.3458647E+03  0.6874521E+00  0.1756649E-07 -0.2412286E-08  0.1552673E-04 -0.1477232E-05 -0.4331071E-07 -0.5494576E-09 -0.6098758E+02 -0.9211528E-01 -0.7479277E-06  0.2205036E-07
  0.2900000E+01  0.3458647E+03  0.1201796E+01  0.1756649E-07 -0.3408118E-08  0.1552673E-04  0.3520169E-05 -0.4331071E-07 -0.6354421E-09 -0.6098758E+02 -0.1583242E+00 -0.7479277E-06  0.2228719E-07
  0.3000000E+01  0.3458647E+03  0.1662808E+01  0.1756649E-07 -0.4262630E-08  0.1552673E-04  0.8417367E-05 -0.4331071E-07 -0.7008923E-09 -0.6098758E+02 -0.2175721E+00 -0.7479277E-06  0.2202352E-07
  0.3100000E+01  0.3458647E+03  0.2056159E+01  0.1756649E-07 -0.4947700E-08  0.1552673E-04  0.1307485E-04 -0.4331071E-07 -0.7434418E-09 -0.6098758E+02 -0.2680140E+00 -0.7479277E-06  0.2122526E-07
  0.3200000E+01  0.3458647E+03  0.2370076E+01  0.1756649E-07 -0.5441621E-08  0.1552673E-04  0.1735953E-04 -0.4331071E-07 -0.7615489E-09 -0.6098758E+02 -0.3081371E+00 -0.7479277E-06  0.1987086E-07
  0.3300000E+01  0.3458647E+03  0.2595717E+01  0.1756649E-07 -0.5729837E-08  0.1552673E-04  0.2114879E-04 -0.4331071E-07 -0.7545494E-09 -0.6098758E+02 -0.3368087E+00 -0.7479277E-06  0.1795304E-07
  0.3400000E+01  0.3458647E+03  0.2727422E+01  0.1756649E-07 -0.5805397E-08  0.1552673E-04  0.2433409E-04 -0.4331071E-07 -0.7226749E-09 -0.6098758E+02 -0.3533094E+00 -0.7479277E-06  0.1548013E-07
  0.3500000E+01  0.3458647E+03  0.2762859E+01  0.1756649E-07 -0.5669119E-08  0.1552673E-04  0.2682418E-04 -0.4331071E-07 -0.6670408E-09 -0.6098758E+02 -0.3573510E+00 -0.7479277E-06  0.1247722E-07
  0.3600000E+01  0.3458647E+03  0.2703054E+01  0.1756649E-07 -0.5329497E-08  0.1552673E-04  0.2854803E-04 -0.4331071E-07 -0.5895968E-09 -0.6098758E+02 -0.3490795E+00 -0.7479277E-06  0.8986556E-08
  0.3700000E+01  0.3458647E+03  0.2552292E+01  0.1756649E-07 -0.4802298E-08  0.1552673E-04  0.2945694E-04 -0.4331071E-07 -0.4930513E-09 -0.6098758E+02 -0.3290632E+00 -0.7479277E-06  0.5067626E-08
  0.3800000E+01  0.3458647E+03  0.2317916E+01  0.1756649E-07 -0.4109928E-08  0.1552673E-04  0.2952620E-04 -0.4331071E-07 -0.3807652E-09 -0.6098758E+02 -0.2982654E+00 -0.7479277E-06  0.7966104E-09
  0.3900000E+01  0.3458647E+03  0.2010015E+01  0.1756649E-07 -0.3280533E-08  0.1552673E-04  0.2875589E-04 -0.4331071E-07 -0.2566232E-09 -0.6098758E+02 -0.2580035E+00 -0.7479277E-06 -0.3734863E-08
  0.4000000E+01  0.3458647E+03  0.1641027E+01  0.1756649E-07 -0.2346926E-08  0.1552673E-04  0.2717104E-04 -0.4331071E-07 -0.1248889E-09 -0.6098758E+02 -0.2098981E+00 -0.7479277E-06 -0.8421253E-08
  0.4100000E+01  0.3458647E+03  0.1225257E+01  0.1756649E-07 -0.1345323E-08  0.1552673E-04  0.2482101E-04 -0.4331071E-07  0.9956090E-11 -0.6098758E+02 -0.1558095E+00 -0.7479277E-06 -0.1314565E-07
  0.4200000E+01  0.3458647E+03  0.7783394E+00  0.1756649E-07 -0.3139783E-09  0.1552673E-04  0.2177807E-04 -0.4331071E-07  0.1433761E-09 -0.6098758E+02 -0.9776831E-01 -0.7479277E-06 -0.1778252E-07
  0.4300000E+01  0.3458647E+03  0.3166773E+00  0.1756649E-07  0.7082123E-09  0.1552673E-04  0.1813537E-04 -0.4331071E-07  0.2709452E-09 -0.6098758E+02 -0.3790221E-01 -0.7479277E-06 -0.2220087E-07
  0.4400000E+01  0.3458647E+03 -0.1431696E+00  0.1756649E-07  0.1683197E-08  0.1552673E-04  0.1400408E-04 -0.4331071E-07  0.3885076E-09 -0.6098758E+02  0.2164290E-01 -0.7479277E-06 -0.2626821E-07
  0.4500000E+01  0.3458647E+03 -0.5850586E+00  0.1756649E-07  0.2575137E-08  0.1552673E-04  0.9510120E-05 -0.4331071E-07  0.4923221E-09 -0.6098758E+02  0.7877769E-01 -0.7479277E-06 -0.2985446E-07
  0.4600000E+01  0.3458647E+03 -0.9938323E+00  0.1756649E-07  0.3351706E-08  0.1552673E-04  0.4790295E-05 -0.4331071E-07  0.5791911E-09 -0.6098758E+02  0.1315427E+00 -0.7479277E-06 -0.3283594E-07
  0.4700000E+01  0.3458647E+03 -0.1355836E+01  0.1756649E-07  0.3985273E-08  0.1552673E-04 -0.1190660E-07 -0.4331071E-07  0.6465652E-09 -0.6098758E+02  0.1781756E+00 -0.7479277E-06 -0.3509986E-07
  0.4800000E+01  0.3458647E+03 -0.1659372E+01  0.1756649E-07  0.4453863E-08  0.1552673E-04 -0.4750730E-05 -0.4331071E-07  0.6926228E-09 -0.6098758E+02  0.2171693E+00 -0.7479277E-06 -0.3654821E-07
  0.4900000E+01  0.3458647E+03 -0.1895081E+01  0.1756649E-07  0.4741935E-08  0.1552673E-04 -0.9282767E-05 -0.4331071E-07  0.7163217E-09 -0.6098758E+02  0.2473219E+00 -0.7479277E-06 -0.3710177E-07
  0.5000000E+01  0.3458647E+03 -0.2056231E+01  0.1756649E-07  0.4840893E-08  0.1552673E-04 -0.1347145E-04 -0.4331071E-07  0.7174196E-09 -0.6098758E+02  0.2677730E+00 -0.7479277E-06 -0.3670347E-07
  0.5100000E+01  0.3458647E+03 -0.2138902E+01  0.1756649E-07  0.4749348E-08  0.1552673E-04 -0.1719137E-04 -0.4331071E-07  0.6964628E-09 -0.6098758E+02  0.2780278E+00 -0.7479277E-06 -0.3532142E-07
  0.5200000E+01  0.3458647E+03 -0.2142073E+01  0.1756649E-07  0.4473102E-08  0.1552673E-04 -0.2033230E-04 -0.4331071E-07  0.6547475E-09 -0.6098758E+02  0.2779677E+00 -0.7479277E-06 -0.3295111E-07
  0.5300000E+01  0.3458647E+03 -0.2067599E+01  0.1756649E-07  0.4024875E-08  0.1552673E-04 -0.2280269E-04 -0.4331071E-07  0.5942535E-09 -0.6098758E+02  0.2678471E+00 -0.7479277E-06 -0.2961703E-07
  0.5400000E+01  0.3458647E+03 -0.1920089E+01  0.1756649E-07  0.3423767E-08  0.1552673E-04 -0.2453274E-04 -0.4331071E-07  0.5175517E-09 -0.6098758E+02  0.2482775E+00 -0.7479277E-06 -0.2537330E-07
  0.5500000E+01  0.3458647E+03 -0.1706683E+01  0.1756649E-07  0.2694490E-08  0.1552673E-04 -0.2547658E-04 -0.4331071E-07  0.4276930E-09 -0.6098758E+02  0.2201972E+00 -0.7479277E-06 -0.2030332E-07
  0.5600000E+01  0.3458647E+03 -0.1436741E+01  0.1756649E-07  0.1866394E-08  0.1552673E-04 -0.2561382E-04 -0.4331071E-07  0.3280811E-09 -0.6098758E+02  0.1848315E+00 -0.7479277E-06 -0.1451860E-07
  0.5700000E+01  0.3458647E+03 -0.1121463E+01  0.1756649E-07  0.9723270E-09  0.1552673E-04 -0.2495023E-04 -0.4331071E-07  0.2223356E-09 -0.6098758E+02  0.1436424E+00 -0.7479277E-06 -0.8156462E-08
  0.5800000E+01  0.3458647E+03 -0.7734432E+00  0.1756649E-07  0.4739973E-10  0.1552673E-04 -0.2351761E-04 -0.4331071E-07  0.1141501E-09 -0.6098758E+02  0.9827159E-01 -0.7479277E-06 -0.1377190E-08
  0.5900000E+01  0.3458647E+03 -0.4061843E+00  0.1756649E-07 -0.8723947E-09  0.1552673E-04 -0.2137275E-04 -0.4331071E-07  0.7151548E-11 -0.6098758E+02  0.5047578E-01 -0.7479277E-06  0.5640429E-08
  0.6000000E+01  0.3458647E+03 -0.3358571E-01  0.1756649E-07 -0.1751516E-08  0.1552673E-04 -0.1859552E-04 -0.4331071E-07 -0.9523418E-10 -0.6098758E+02  0.2061209E-02 -0.7479277E-06  0.1270365E-07
  0.6100000E+01  0.3458647E+03  0.3305689E+00  0.1756649E-07 -0.2556221E-08  0.1552673E-04 -0.1528630E-04 -0.4331071E-07 -0.1899028E-09 -0.6098758E+02 -0.4518321E-01 -0.7479277E-06  0.1961130E-07
  0.6200000E+01  0.3458647E+03  0.6731144E+00  0.1756649E-07 -0.3255823E-08  0.1552673E-04 -0.1156261E-04 -0.4331071E-07 -0.2741792E-09 -0.6098758E+02 -0.8955127E-01 -0.7479277E-06  0.2615982E-07
  0.6300000E+01  0.3458647E+03  0.9819674E+00  0.1756649E-07 -0.3823822E-08  0.1552673E-04 -0.7555246E-05 -0.4331071E-07 -0.3458994E-09 -0.6098758E+02 -0.1294792E+00 -0.7479277E-06  0.3214928E-07
  0.6400000E+01  0.3458647E+03  0.1246555E+01  0.1756649E-07 -0.4238906E-08  0.1552673E-04 -0.3403815E-05 -0.4331071E-07 -0.4034748E-09 -0.6098758E+02 -0.1636015E+00 -0.7479277E-06  0.3739017E-07
  0.6500000E+01  0.3458647E+03  0.1458172E+01  0.1756649E-07 -0.4485714E-08  0.1552673E-04  0.7479890E-06 -0.4331071E-07 -0.4459286E-09 -0.6098758E+02 -0.1907965E+00 -0.7479277E-06  0.4170951E-07
  0.6600000E+01  0.3458647E+03  0.1610252E+01  0.1756649E-07 -0.4555377E-08  0.1552673E-04  0.4757170E-05 -0.4331071E-07 -0.4729040E-09 -0.6098758E+02 -0.2102221E+00 -0.7479277E-06  0.4495686E-07
  0.6700000E+01  0.3458647E+03  0.1698577E+01  0.1756649E-07 -0.4445841E-08  0.1552673E-04  0.8486393E-05 -0.4331071E-07 -0.4846507E-09 -0.6098758E+02 -0.2213417E+00 -0.7479277E-06  0.4700983E-07
  0.6800000E+01  0.3458647E+03  0.1721378E+01  0.1756649E-07 -0.4161900E-08  0.1552673E-04  0.1180859E-04 -0.4331071E-07 -0.4819848E-09 -0.6098758E+02 -0.2239376E+00 -0.7479277E-06  0.4777890E-07
  0.6900000E+01  0.3458647E+03  0.1679353E+01  0.1756649E-07 -0.3714992E-08  0.1552673E-04  0.1461146E-04 -0.4331071E-07 -0.4662257E-09 -0.6098758E+02 -0.2181127E+00 -0.7479277E-06  0.4721124E-07
  0.7000000E+01  0.3458647E+03  0.1575588E+01  0.1756649E-07 -0.3122734E-08  0.1552673E-04  0.1680123E-04 -0.4331071E-07 -0.4391161E-09 -0.6098758E+02 -0.2042796E+00 -0.7479277E-06  0.4529344E-07
  0.7100000E+01  0.3458647E+03  0.1415396E+01  0.1756649E-07 -0.2408245E-08  0.1552673E-04  0.1830600E-04 -0.4331071E-07 -0.4027247E-09 -0.6098758E+02 -0.1831398E+00 -0.7479277E-06  0.4205324E-07
  0.7200000E+01  0.3458647E+03  0.1206071E+01  0.1756649E-07 -0.1599238E-08  0.1552673E-04  0.1907824E-04 -0.4331071E-07 -0.3593405E-09 -0.6098758E+02 -0.1556511E+00 -0.7479277E-06  0.3755962E-07
  0.7300000E+01  0.3458647E+03  0.9565806E+00  0.1756649E-07 -0.7269751E-09  0.1552673E-04  0.1909647E-04 -0.4331071E-07 -0.3113615E-09 -0.6098758E+02 -0.1229873E+00 -0.7479277E-06  0.3192190E-07
  0.7400000E+01  0.3458647E+03  0.6771928E+00  0.1756649E-07  0.1749449E-09  0.1552673E-04  0.1836604E-04 -0.4331071E-07 -0.2611801E-09 -0.6098758E+02 -0.8648970E-01 -0.7479277E-06  0.2528725E-07
  0.7500000E+01  0.3458647E+03  0.3790723E+00  0.1756649E-07  0.1071836E-08  0.1552673E-04  0.1691903E-04 -0.4331071E-07 -0.2110755E-09 -0.6098758E+02 -0.4761398E-01 -0.7479277E-06  0.1783704E-07
  0.7600000E+01  0.3458647E+03  0.7384019E-01  0.1756649E-07  0.1929259E-08  0.1552673E-04  0.1481312E-04 -0.4331071E-07 -0.1631145E-09 -0.6098758E+02 -0.7873444E-02 -0.7479277E-06  0.9781738E-08
  0.7700000E+01  0.3458647E+03 -0.2268693E+00  0.1756649E-07  0.2714313E-08  0.1552673E-04  0.1212960E-04 -0.4331071E-07 -0.1190656E-09 -0.6098758E+02  0.3121899E-01 -0.7479277E-06  0.1354950E-08
  0.7800000E+01  0.3458647E+03 -0.5118365E+00  0.1756649E-07  0.3396862E-08  0.1552673E-04  0.8970595E-05 -0.4331071E-07 -0.8033105E-10 -0.6098758E+02  0.6820643E-01 -0.7479277E-06 -0.7193411E-08
  0.7900000E+01  0.3458647E+03 -0.7706802E+00  0.1756649E-07  0.3950681E-08  0.1552673E-04  0.5455424E-05 -0.4331071E-07 -0.4789413E-10 -0.6098758E+02  0.1017427E+00 -0.7479277E-06 -0.1560494E-07
  0.8000000E+01  0.3458647E+03 -0.9942213E+00  0.1756649E-07  0.4354432E-08  0.1552673E-04  0.1716435E-05 -0.4331071E-07 -0.2229442E-10 -0.6098758E+02  0.1306399E+00 -0.7479277E-06 -0.2362090E-07
  0.8100000E+01  0.3458647E+03 -0.1174809E+01  0.1756649E-07  0.4592464E-08  0.1552673E-04 -0.2105741E-05 -0.4331071E-07 -0.3620955E-11 -0.6098758E+02  0.1539102E+00 -0.7479277E-06 -0.3099052E-07
  0.8200000E+01  0.3458647E+03 -0.1306570E+01  0.1756649E-07  0.4655386E-08  0.1552673E-04 -0.5867083E-05 -0.4331071E-07  0.8471195E-11 -0.6098758E+02  0.1707982E+00 -0.7479277E-06 -0.3747905E-07
  0.8300000E+01  0.3458647E+03 -0.1385605E+01  0.1756649E-07  0.4540426E-08  0.1552673E-04 -0.9425515E-05 -0.4331071E-07  0.1472418E-10 -0.6098758E+02  0.1808061E+00 -0.7479277E-06 -0.4287610E-07
  0.8400001E+01  0.3458647E+03 -0.1410085E+01  0.1756649E-07  0.4251524E-08  0.1552673E-04 -0.1264586E-04 -0.4331071E-07  0.1622001E-10 -0.6098758E+02  0.1837058E+00 -0.7479277E-06 -0.4700240E-07
  0.8500000E+01  0.3458647E+03 -0.1380285E+01  0.1756649E-07  0.3799187E-08  0.1552673E-04 -0.1540478E-04 -0.4331071E-07  0.1430776E-10 -0.6098758E+02  0.1795433E+00 -0.7479277E-06 -0.4971649E-07
  0.8600000E+01  0.3458647E+03 -0.1298530E+01  0.1756649E-07  0.3200081E-08  0.1552673E-04 -0.1759538E-04 -0.4331071E-07  0.1051919E-10 -0.6098758E+02  0.1686309E+00 -0.7479277E-06 -0.5091994E-07
  0.8700000E+01  0.3458647E+03 -0.1169067E+01  0.1756649E-07  0.2476430E-08  0.1552673E-04 -0.1913099E-04 -0.4331071E-07  0.6476581E-11 -0.6098758E+02  0.1515303E+00 -0.7479277E-06 -0.5056111E-07
  0.8800000E+01  0.3458647E+03 -0.9978609E+00  0.1756649E-07  0.1655151E-08  0.1552673E-04 -0.1994855E-04 -0.4331071E-07  0.3793624E-11 -0.6098758E+02  0.1290263E+00 -0.7479277E-06 -0.4863762E-07
  0.8900001E+01  0.3458647E+03 -0.7923396E+00  0.1756649E-07  0.7668796E-09  0.1552673E-04 -0.2001084E-04 -0.4331071E-07  0.3982302E-11 -0.6098758E+02  0.1020923E+00 -0.7479277E-06 -0.4519715E-07
  0.9000000E+01  0.3458647E+03 -0.5610908E+00  0.1756649E-07 -0.1551558E-09  0.1552673E-04 -0.1930823E-04 -0.4331071E-07  0.8359875E-11 -0.6098758E+02  0.7185168E-01 -0.7479277E-06 -0.4033681E-07
  0.9100000E+01  0.3458647E+03 -0.3134878E+00  0.1756649E-07 -0.1076448E-08  0.1552673E-04 -0.1785887E-04 -0.4331071E-07  0.1797176E-10 -0.6098758E+02  0.3952814E-01 -0.7479277E-06 -0.3420012E-07
  0.9200000E+01  0.3458647E+03 -0.5934858E-01  0.1756649E-07 -0.1962392E-08  0.1552673E-04 -0.1570849E-04 -0.4331071E-07  0.3352262E-10 -0.6098758E+02  0.6401860E-02 -0.7479277E-06 -0.2697340E-07
  0.9300000E+01  0.3458647E+03  0.1914736E+00  0.1756649E-07 -0.2779663E-08  0.1552673E-04 -0.1292865E-04 -0.4331071E-07  0.5532918E-10 -0.6098758E+02 -0.2624427E-01 -0.7479277E-06 -0.1887967E-07
  0.9400001E+01  0.3458647E+03  0.4294460E+00  0.1756649E-07 -0.3497385E-08  0.1552673E-04 -0.9614510E-05 -0.4331071E-07  0.8328922E-10 -0.6098758E+02 -0.5717077E-01 -0.7479277E-06 -0.1017227E-07
  0.9500000E+01  0.3458647E+03  0.6457225E+00  0.1756649E-07 -0.4088308E-08  0.1552673E-04 -0.5881466E-05 -0.4331071E-07  0.1168738E-09 -0.6098758E+02 -0.8522905E-01 -0.7479277E-06 -0.1126425E-08
  0.9600000E+01  0.3458647E+03  0.8324707E+00  0.1756649E-07 -0.4529833E-08  0.1552673E-04 -0.1860978E-05 -0.4331071E-07  0.1551403E-09 -0.6098758E+02 -0.1094041E+00 -0.7479277E-06  0.7969711E-08
  0.9700000E+01  0.3458647E+03  0.9831424E+00  0.1756649E-07 -0.4804821E-08  0.1552673E-04  0.2303874E-05 -0.4331071E-07  0.1967688E-09 -0.6098758E+02 -0.1288492E+00 -0.7479277E-06  0.1682401E-07
  0.9800000E+01  0.3458647E+03  0.1092707E+01  0.1756649E-07 -0.4902253E-08  0.1552673E-04  0.6463747E-05 -0.4331071E-07  0.2401137E-09 -0.6098758E+02 -0.1429165E+00 -0.7479277E-06  0.2515061E-07
  0.9900001E+01  0.3458647E+03  0.1157812E+01  0.1756649E-07 -0.4817641E-08  0.1552673E-04  0.1046822E-04 -0.4331071E-07  0.2832788E-09 -0.6098758E+02 -0.1511770E+00 -0.7479277E-06  0.3267899E-07
Zone t="DoF    2",I=   100,F=POINT
  0.0000000E+00 -0.2547585E-06  0.3985155E-08  0.3458646E+03  0.3878414E+01 -0.7955567E-06 -0.1746859E-06  0.6098757E+02  0.4979396E+00 -0.4213987E-07  0.3122196E-09  0.1176546E-05  0.1101447E-07
  0.1000000E+00 -0.2547585E-06  0.3934404E-08  0.3458646E+03  0.3819093E+01 -0.7955567E-06 -0.1717880E-06  0.6098757E+02  0.4902933E+00 -0.4213987E-07  0.3005380E-09  0.1176546E-05  0.1081004E-07
  0.2000000E+00 -0.2547585E-06  0.3783333E-08  0.3458646E+03  0.3643066E+01 -0.7955567E-06 -0.1631943E-06  0.6098757E+02  0.4676048E+00 -0.4213987E-07  0.2660599E-09  0.1176546E-05  0.1020464E-07
  0.3000000E+00 -0.2547585E-06  0.3535475E-08  0.3458646E+03  0.3356083E+01 -0.7955567E-06 -0.1492013E-06  0.6098757E+02  0.4306171E+00 -0.4213987E-07  0.2104593E-09  0.1176546E-05  0.9221599E-08
  0.4000000E+00 -0.2547585E-06  0.3196638E-08  0.3458646E+03  0.2967510E+01 -0.7955567E-06 -0.1302917E-06  0.6098757E+02  0.3805401E+00 -0.4213987E-07  0.1364470E-09  0.1176546E-05  0.7898800E-08
  0.5000000E+00 -0.2547585E-06  0.2774796E-08  0.3458646E+03  0.2490009E+01 -0.7955567E-06 -0.1071170E-06  0.6098757E+02  0.3190099E+00 -0.4213987E-07  0.4765185E-10  0.1176546E-05  0.6287137E-08
  0.6000000E+00 -0.2547585E-06  0.2279929E-08  0.3458646E+03  0.1939108E+01 -0.7955567E-06 -0.8047432E-07  0.6098757E+02  0.2480327E+00 -0.4213987E-07 -0.5153608E-10  0.1176546E-05  0.4448526E-08
  0.7000000E+00 -0.2547585E-06  0.1723831E-08  0.3458646E+03  0.1332682E+01 -0.7955567E-06 -0.5127860E-07  0.6098757E+02  0.1699171E+00 -0.4213987E-07 -0.1561557E-09  0.1176546E-05  0.2453441E-08
  0.8000000E+00 -0.2547585E-06  0.1119857E-08  0.3458646E+03  0.6903373E+00 -0.7955567E-06 -0.2052978E-07  0.6098757E+02  0.8719559E-01 -0.4213987E-07 -0.2608928E-09  0.1176546E-05  0.3781356E-09
  0.9000000E+00 -0.2547585E-06  0.4826576E-09  0.3458646E+03  0.3275861E-01 -0.7955567E-06  0.1072227E-07  0.6098757E+02  0.2539204E-02 -0.4213987E-07 -0.3603126E-09  0.1176546E-05 -0.1698374E-08
  0.1000000E+01 -0.2547585E-06 -0.1721379E-09  0.3458646E+03 -0.6189899E+00 -0.7955567E-06  0.4141479E-07  0.6098757E+02 -0.8133274E-01 -0.4213987E-07 -0.4491002E-09  0.1176546E-05 -0.3697410E-08
  0.1100000E+01 -0.2547585E-06 -0.8282643E-09  0.3458646E+03 -0.1244172E+01 -0.7955567E-06  0.7050954E-07  0.6098757E+02 -0.1617439E+00 -0.4213987E-07 -0.5222989E-09  0.1176546E-05 -0.5543729E-08
  0.1200000E+01 -0.2547585E-06 -0.1469185E-08  0.3458646E+03 -0.1823068E+01 -0.7955567E-06  0.9702907E-07  0.6098757E+02 -0.2361504E+00 -0.4213987E-07 -0.5755348E-09  0.1176546E-05 -0.7168456E-08
  0.1300000E+01 -0.2547585E-06 -0.2078476E-08  0.3458646E+03 -0.2337633E+01 -0.7955567E-06  0.1200908E-06  0.6098757E+02 -0.3022252E+00 -0.4213987E-07 -0.6052187E-09  0.1176546E-05 -0.8511763E-08
  0.1400000E+01 -0.2547585E-06 -0.2640221E-08  0.3458646E+03 -0.2772082E+01 -0.7955567E-06  0.1389375E-06  0.6098757E+02 -0.3579348E+00 -0.4213987E-07 -0.6087186E-09  0.1176546E-05 -0.9525182E-08
  0.1500000E+01 -0.2547585E-06 -0.3139416E-08  0.3458646E+03 -0.3113415E+01 -0.7955567E-06  0.1529634E-06  0.6098757E+02 -0.4016058E+00 -0.4213987E-07 -0.5844925E-09  0.1176546E-05 -0.1017343E-07
  0.1600000E+01 -0.2547585E-06 -0.3562351E-08  0.3458646E+03 -0.3351817E+01 -0.7955567E-06  0.1617345E-06  0.6098757E+02 -0.4319776E+00 -0.4213987E-07 -0.5321787E-09  0.1176546E-05 -0.1043576E-07
  0.1700000E+01 -0.2547585E-06 -0.3896993E-08  0.3458646E+03 -0.3480972E+01 -0.7955567E-06  0.1650029E-06  0.6098757E+02 -0.4482420E+00 -0.4213987E-07 -0.4526355E-09  0.1176546E-05 -0.1030661E-07
  0.1800000E+01 -0.2547585E-06 -0.4133334E-08  0.3458646E+03 -0.3498238E+01 -0.7955567E-06  0.1627140E-06  0.6098757E+02 -0.4500664E+00 -0.4213987E-07 -0.3479325E-09  0.1176546E-05 -0.9795775E-08
  0.1900000E+01 -0.2547585E-06 -0.4263705E-08  0.3458646E+03 -0.3404703E+01 -0.7955567E-06  0.1550076E-06  0.6098757E+02 -0.4376002E+00 -0.4213987E-07 -0.2212910E-09  0.1176546E-05 -0.8927894E-08
  0.2000000E+01 -0.2547585E-06 -0.4283041E-08  0.3458646E+03 -0.3205114E+01 -0.7955567E-06  0.1422108E-06  0.6098757E+02 -0.4114657E+00 -0.4213987E-07 -0.7697465E-10  0.1176546E-05 -0.7741320E-08
  0.2100000E+01 -0.2547585E-06 -0.4189090E-08  0.3458646E+03 -0.2907672E+01 -0.7955567E-06  0.1248257E-06  0.6098757E+02 -0.3727314E+00 -0.4213987E-07  0.7986393E-10  0.1176546E-05 -0.6286508E-08
  0.2200000E+01 -0.2547585E-06 -0.3982561E-08  0.3458646E+03 -0.2523725E+01 -0.7955567E-06  0.1035096E-06  0.6098757E+02 -0.3228718E+00 -0.4213987E-07  0.2433748E-09  0.1176546E-05 -0.4623895E-08
  0.2300000E+01 -0.2547585E-06 -0.3667189E-08  0.3458646E+03 -0.2067340E+01 -0.7955567E-06  0.7905083E-07  0.6098757E+02 -0.2637122E+00 -0.4213987E-07  0.4072369E-09  0.1176546E-05 -0.2821390E-08
  0.2400000E+01 -0.2547585E-06 -0.3249729E-08  0.3458646E+03 -0.1554799E+01 -0.7955567E-06  0.5233904E-07  0.6098757E+02 -0.1973628E+00 -0.4213987E-07  0.5649045E-09  0.1176546E-05 -0.9515647E-09
  0.2500000E+01 -0.2547585E-06 -0.2739865E-08  0.3458646E+03 -0.1004022E+01 -0.7955567E-06  0.2433320E-07  0.6098757E+02 -0.1261442E+00 -0.4213987E-07  0.7098672E-09  0.1176546E-05  0.9112481E-09
  0.2600000E+01 -0.2547585E-06 -0.2150028E-08  0.3458646E+03 -0.4339280E+00 -0.7955567E-06 -0.3973716E-08  0.6098757E+02 -0.5250433E-01 -0.4213987E-07  0.8359166E-09  0.1176546E-05  0.2694039E-08
  0.2700000E+01 -0.2547585E-06 -0.1495137E-08  0.3458646E+03  0.1362143E+00 -0.7955567E-06 -0.3159010E-07  0.6098757E+02  0.2106504E-01 -0.4213987E-07  0.9374004E-09  0.1176546E-05  0.4327970E-08
  0.2800000E+01 -0.2547585E-06 -0.7922482E-09  0.3458646E+03  0.6874532E+00 -0.7955567E-06 -0.5756148E-07  0.6098757E+02  0.9211545E-01 -0.4213987E-07  0.1009463E-08  0.1176546E-05  0.5751196E-08
  0.2900000E+01 -0.2547585E-06 -0.6013821E-10  0.3458646E+03  0.1201797E+01 -0.7955567E-06 -0.8100423E-07  0.6098757E+02  0.1583243E+00 -0.4213987E-07  0.1048256E-08  0.1176546E-05  0.6911232E-08
  0.3000000E+01 -0.2547585E-06  0.6811787E-09  0.3458646E+03  0.1662808E+01 -0.7955567E-06 -0.1011363E-06  0.6098757E+02  0.2175723E+00 -0.4213987E-07  0.1051116E-08  0.1176546E-05  0.7767030E-08
  0.3100000E+01 -0.2547585E-06  0.1411001E-08  0.3458646E+03  0.2056159E+01 -0.7955567E-06 -0.1173044E-06  0.6098757E+02  0.2680142E+00 -0.4213987E-07  0.1016690E-08  0.1176546E-05  0.8290502E-08
  0.3200000E+01 -0.2547585E-06  0.2108512E-08  0.3458646E+03  0.2370077E+01 -0.7955567E-06 -0.1290064E-06  0.6098757E+02  0.3081372E+00 -0.4213987E-07  0.9450262E-09  0.1176546E-05  0.8467541E-08
  0.3300000E+01 -0.2547585E-06  0.2753400E-08  0.3458646E+03  0.2595717E+01 -0.7955567E-06 -0.1359070E-06  0.6098757E+02  0.3368088E+00 -0.4213987E-07  0.8375955E-09  0.1176546E-05  0.8298445E-08
  0.3400000E+01 -0.2547585E-06  0.3326460E-08  0.3458646E+03  0.2727421E+01 -0.7955567E-06 -0.1378487E-06  0.6098757E+02  0.3533095E+00 -0.4213987E-07  0.6972696E-09  0.1176546E-05  0.7797726E-08
  0.3500000E+01 -0.2547585E-06  0.3810199E-08  0.3458646E+03  0.2762858E+01 -0.7955567E-06 -0.1348550E-06  0.6098757E+02  0.3573511E+00 -0.4213987E-07  0.5282385E-09  0.1176546E-05  0.6993384E-08
  0.3600000E+01 -0.2547585E-06  0.4189406E-08  0.3458646E+03  0.2703053E+01 -0.7955567E-06 -0.1271276E-06  0.6098757E+02  0.3490796E+00 -0.4213987E-07  0.3358767E-09  0.1176546E-05  0.5925565E-08
  0.3700000E+01 -0.2547585E-06  0.4451671E-08  0.3458646E+03  0.2552290E+01 -0.7955567E-06 -0.1150368E-06  0.6098757E+02  0.3290633E+00 -0.4213987E-07  0.1265643E-09  0.1176546E-05  0.4644793E-08
  0.3800000E+01 -0.2547585E-06  0.4587836E-08  0.3458646E+03  0.2317914E+01 -0.7955567E-06 -0.9910616E-07  0.6098757E+02  0.2982654E+00 -0.4213987E-07 -0.9253901E-10  0.1176546E-05  0.3209716E-08
  0.3900000E+01 -0.2547585E-06  0.4592343E-08  0.3458646E+03  0.2010013E+01 -0.7955567E-06 -0.7999143E-07  0.6098757E+02  0.2580035E+00 -0.4213987E-07 -0.3137482E-09  0.1176546E-05  0.1684603E-08
  0.4000000E+01 -0.2547585E-06  0.4463511E-08  0.3458646E+03  0.1641025E+01 -0.7955567E-06 -0.5845502E-07  0.6098757E+02  0.2098980E+00 -0.4213987E-07 -0.5291321E-09  0.1176546E-05  0.1365592E-09
  0.4100000E+01 -0.2547585E-06  0.4203665E-08  0.3458646E+03  0.1225255E+01 -0.7955567E-06 -0.3533661E-07  0.6098757E+02  0.1558094E+00 -0.4213987E-07 -0.7308096E-09  0.1176546E-05 -0.1367300E-08
  0.4200000E+01 -0.2547585E-06  0.3819164E-08  0.3458646E+03  0.7783373E+00 -0.7955567E-06 -0.1152131E-07  0.6098757E+02  0.9776817E-01 -0.4213987E-07 -0.9112447E-09  0.1176546E-05 -0.2762693E-08
  0.4300000E+01 -0.2547585E-06  0.3320298E-08  0.3458646E+03  0.3166752E+00 -0.7955567E-06  0.1209294E-07  0.6098757E+02  0.3790207E-01 -0.4213987E-07 -0.1063531E-08  0.1176546E-05 -0.3990860E-08
  0.4400000E+01 -0.2547585E-06  0.2721042E-08  0.3458646E+03 -0.1431716E+00 -0.7955567E-06  0.3462954E-07  0.6098757E+02 -0.2164305E-01 -0.4213987E-07 -0.1181665E-08  0.1176546E-05 -0.5001008E-08
  0.4500000E+01 -0.2547585E-06  0.2038701E-08  0.3458646E+03 -0.5850605E+00 -0.7955567E-06  0.5526479E-07  0.6098757E+02 -0.7877785E-01 -0.4213987E-07 -0.1260778E-08  0.1176546E-05 -0.5752382E-08
  0.4600000E+01 -0.2547585E-06  0.1293433E-08  0.3458646E+03 -0.9938338E+00 -0.7955567E-06  0.7325786E-07  0.6098757E+02 -0.1315429E+00 -0.4213987E-07 -0.1297339E-08  0.1176546E-05 -0.6215957E-08
  0.4700000E+01 -0.2547585E-06  0.5076566E-09  0.3458646E+03 -0.1355837E+01 -0.7955567E-06  0.8797750E-07  0.6098757E+02 -0.1781757E+00 -0.4213987E-07 -0.1289300E-08  0.1176546E-05 -0.6375517E-08
  0.4800000E+01 -0.2547585E-06 -0.2946028E-09  0.3458646E+03 -0.1659373E+01 -0.7955567E-06  0.9892393E-07  0.6098757E+02 -0.2171695E+00 -0.4213987E-07 -0.1236196E-08  0.1176546E-05 -0.6228305E-08
  0.4900000E+01 -0.2547585E-06 -0.1088474E-08  0.3458646E+03 -0.1895082E+01 -0.7955567E-06  0.1057462E-06  0.6098757E+02 -0.2473221E+00 -0.4213987E-07 -0.1139186E-08  0.1176546E-05 -0.5785000E-08
  0.5000000E+01 -0.2547585E-06 -0.1849020E-08  0.3458646E+03 -0.2056231E+01 -0.7955567E-06  0.1082536E-06  0.6098757E+02 -0.2677731E+00 -0.4213987E-07 -0.1001028E-08  0.1176546E-05 -0.5069214E-08