VARIABLES="w (rad/s)"
"abs(F   1   1)" "angle(F   1   1)"
"abs(F   1   2)" "angle(F   1   2)"
"abs(F   1   3)" "angle(F   1   3)"
"abs(F   1   4)" "angle(F   1   4)"
"abs(F   1   5)" "angle(F   1   5)"
"abs(F   1   6)" "angle(F   1   6)"
Zone t="Diffraction force - beta =   0.000 deg",I=    19,F=POINT
  0.2000000E+00  0.9276434E+02 -0.1570753E+01  0.9689837E-06  0.8534130E+00  0.1773772E+02 -0.3022328E+01  0.1505059E-06 -0.2505517E+01  0.1651182E+02  0.1570826E+01  0.1862645E-07  0.0000000E+00
  0.3000000E+00  0.1398346E+03 -0.1570696E+01  0.4267043E-06  0.1781890E+01  0.3883898E+02 -0.3018028E+01  0.2711983E-05 -0.3089370E+01  0.2491291E+02  0.1570865E+01  0.3062515E-05 -0.1556199E+01
  0.4000000E+00  0.1873566E+03 -0.1570612E+01  0.1606909E-05  0.1901344E+01  0.6759092E+02 -0.3013890E+01  0.1968420E-06  0.2627141E+01  0.3339213E+02  0.1570922E+01  0.8732618E-05  0.1581888E+01
  0.5000000E+00  0.2365193E+03 -0.1570497E+01  0.2225417E-05 -0.1343214E+00  0.1038632E+03 -0.3009744E+01  0.1656443E-05 -0.3087591E+01  0.4218406E+02  0.1571000E+01  0.7495288E-05 -0.1569802E+01
  0.6000000E+00  0.2860254E+03 -0.1570343E+01  0.1077909E-04 -0.3019638E+01  0.1473345E+03 -0.3005305E+01  0.6587025E-05  0.9629219E-01  0.5105822E+02  0.1571105E+01  0.3338160E-05 -0.1557404E+01
  0.7000000E+00  0.3373490E+03 -0.1570141E+01  0.3666170E-05  0.1625873E-01  0.1984967E+03 -0.3000801E+01  0.1305979E-05  0.5864203E+00  0.6032709E+02  0.1571243E+01  0.1129052E-05  0.1963557E+01
  0.8000000E+00  0.3914062E+03 -0.1569880E+01  0.1233831E-04  0.3136762E+01  0.2563956E+03 -0.2995536E+01  0.4321337E-05 -0.1175116E+00  0.7005954E+02  0.1571422E+01  0.6663002E-05  0.1499170E+01
  0.9000000E+00  0.4466693E+03 -0.1569542E+01  0.6408539E-05  0.8117079E+00  0.3220294E+03 -0.2989969E+01  0.7729280E-05  0.3089516E+01  0.8012751E+02  0.1571655E+01  0.1640438E-04 -0.1530818E+01
  0.9999999E+00  0.5042235E+03 -0.1569102E+01  0.1644754E-04 -0.2759068E+01  0.3934761E+03 -0.2983448E+01  0.8138340E-05 -0.2725150E+00  0.9067638E+02  0.1571958E+01  0.5572078E-05 -0.1672594E+01
  0.1100000E+01  0.5669800E+03 -0.1568532E+01  0.2683136E-04 -0.3043692E+01  0.4730891E+03 -0.2976057E+01  0.1196926E-04 -0.2811968E+01  0.1022028E+03  0.1572352E+01  0.1082087E-04  0.1592831E+01
  0.1200000E+01  0.6326662E+03 -0.1567795E+01  0.8436953E-05 -0.2734846E+01  0.5573987E+03 -0.2968062E+01  0.1639242E-04  0.3129775E+01  0.1141906E+03  0.1572865E+01  0.1240468E-04 -0.1493840E+01
  0.1300000E+01  0.7018225E+03 -0.1566817E+01  0.3005570E-04  0.2337964E+01  0.6480154E+03 -0.2958625E+01  0.2750586E-05  0.2337040E+01  0.1269999E+03  0.1573545E+01  0.1754038E-05  0.1400061E+01
  0.1400000E+01  0.7756769E+03 -0.1565530E+01  0.2378345E-04  0.1231116E+00  0.7465308E+03 -0.2948088E+01  0.3546400E-04 -0.1295667E+00  0.1409018E+03  0.1574443E+01  0.5226889E-05 -0.2372322E+01
  0.1500000E+01  0.8569324E+03 -0.1563874E+01  0.3965819E-04 -0.3274539E+00  0.8459850E+03 -0.2936978E+01  0.2639036E-04 -0.3083119E+01  0.1558942E+03  0.1575606E+01  0.1085214E-04 -0.1598262E+01
  0.1600000E+01  0.9455328E+03 -0.1561673E+01  0.6994227E-04 -0.2932999E+01  0.9507531E+03 -0.2923940E+01  0.1989918E-04  0.3036186E+01  0.1723365E+03  0.1577160E+01  0.3470429E-04  0.1636108E+01
  0.1700000E+01  0.1040846E+04 -0.1558762E+01  0.2104179E-04  0.2724631E+00  0.1061582E+04 -0.2909336E+01  0.1143190E-04  0.2576707E+01  0.1902844E+03  0.1579227E+01  0.4307169E-04  0.1529269E+01
  0.1800000E+01  0.1142063E+04 -0.1555037E+01  0.5224850E-04  0.4534439E+00  0.1167917E+04 -0.2894911E+01  0.3874219E-04 -0.1108059E+00  0.2091793E+03  0.1581879E+01  0.1429322E-04 -0.1620859E+01
  0.1900000E+01  0.1251313E+04 -0.1550183E+01  0.7430594E-04  0.2194403E+01  0.1276536E+04 -0.2878958E+01  0.5668731E-05 -0.1249877E+01  0.2298230E+03  0.1585348E+01  0.6313874E-05  0.1703348E+01
  0.2000000E+01  0.1374670E+04 -0.1543969E+01  0.1504252E-03  0.1483413E+00  0.1388615E+04 -0.2860915E+01  0.1199454E-03  0.6576657E-01  0.2532020E+03  0.1589826E+01  0.5441434E-05  0.1769266E+01
