VARIABLES="w (rad/s)"
"abs(F   1   1)" "angle(F   1   1)"
"abs(F   1   2)" "angle(F   1   2)"
"abs(F   1   3)" "angle(F   1   3)"
"abs(F   1   4)" "angle(F   1   4)"
"abs(F   1   5)" "angle(F   1   5)"
"abs(F   1   6)" "angle(F   1   6)"
Zone t="Diffraction force - beta =   0.000 deg",I=    19,F=POINT
  0.2000000E+00  0.2366802E+03 -0.1570786E+01  0.6605800E-03  0.1015096E-02  0.1001783E+05 -0.2106721E-03  0.3826815E-04 -0.3139256E+01  0.2860967E+02  0.1570804E+01  0.1522993E-04 -0.2637131E+01
  0.3000000E+00  0.3563568E+03 -0.1570754E+01  0.2022691E-03  0.3138940E+01  0.9972158E+04 -0.4800287E-03  0.6404899E-04  0.1512218E-02  0.4313502E+02  0.1570836E+01  0.3318946E-04  0.4005588E+00
  0.4000000E+00  0.4772778E+03 -0.1570723E+01  0.4610586E-03  0.2779477E-02  0.9909024E+04 -0.8687129E-03  0.1701416E-04  0.4774975E-01  0.5783057E+02  0.1570867E+01  0.2639906E-04  0.2383539E+01
  0.5000000E+00  0.6009186E+03 -0.1570680E+01  0.3214685E-04 -0.3106357E+01  0.9828640E+04 -0.1389266E-02  0.3026439E-04  0.3138639E+01  0.7296403E+02  0.1570911E+01  0.4574662E-05 -0.1569167E+01
  0.6000000E+00  0.7262916E+03 -0.1570619E+01  0.1309187E-02 -0.1001617E-02  0.9731368E+04 -0.2057036E-02  0.1076468E-03  0.3668309E-02  0.8834030E+02  0.1570974E+01  0.6004755E-04 -0.2665182E+01
  0.7000000E+00  0.8552056E+03 -0.1570541E+01  0.1371822E-03  0.5648430E-02  0.9616781E+04 -0.2896443E-02  0.8474940E-05  0.3063270E+01  0.1043099E+03  0.1571052E+01  0.1652686E-05 -0.4676799E+00
  0.8000000E+00  0.9889444E+03 -0.1570432E+01  0.3904655E-04 -0.3124800E+01  0.9485898E+04 -0.3933771E-02  0.1559258E-03  0.3141019E+01  0.1209836E+03  0.1571159E+01  0.2993294E-04  0.2793077E+01
  0.9000000E+00  0.1126385E+04 -0.1570301E+01  0.1206051E-02  0.4052562E-02  0.9337912E+04 -0.5208939E-02  0.9146422E-04  0.4398824E-02  0.1382796E+03  0.1571293E+01  0.3407354E-04 -0.2988810E+01
  0.9999999E+00  0.1269060E+04 -0.1570124E+01  0.9556484E-04 -0.3077306E+01  0.9174834E+04 -0.6754078E-02  0.2143927E-04 -0.1528078E+00  0.1563929E+03  0.1571468E+01  0.2778799E-04  0.1168581E+01
  0.1100000E+01  0.1420372E+04 -0.1569892E+01  0.1773835E-02 -0.9408636E-03  0.8994575E+04 -0.8667102E-02  0.2213977E-03 -0.1534614E-01  0.1758757E+03  0.1571700E+01  0.6346191E-04  0.1943803E+01
  0.1200000E+01  0.1578593E+04 -0.1569593E+01  0.1069318E-03 -0.3137133E+01  0.8800745E+04 -0.1093578E-01  0.1422773E-03  0.3137718E+01  0.1962737E+03  0.1571998E+01  0.4673051E-04 -0.4464255E-02
  0.1300000E+01  0.1744842E+04 -0.1569195E+01  0.3877430E-03  0.4721018E-01  0.8592146E+04 -0.1372289E-01  0.3223553E-03  0.3132487E+01  0.2180124E+03  0.1572397E+01  0.5190227E-04  0.7366563E+00
  0.1400000E+01  0.1920962E+04 -0.1568670E+01  0.5042638E-03  0.5791896E-02  0.8367578E+04 -0.1715723E-01  0.1268403E-03 -0.4365757E-01  0.2414324E+03  0.1572924E+01  0.5027022E-04 -0.2320974E+01
  0.1500000E+01  0.2110278E+04 -0.1567985E+01  0.2005982E-02 -0.6834148E-02  0.8134208E+04 -0.2113399E-01  0.2056484E-03 -0.3130615E+01  0.2666039E+03  0.1573608E+01  0.4922395E-04  0.1811663E+01
  0.1600000E+01  0.2313329E+04 -0.1567068E+01  0.9844321E-03 -0.2119176E-02  0.7888545E+04 -0.2602853E-01  0.2181743E-03  0.3127625E+01  0.2939582E+03  0.1574527E+01  0.4065041E-04 -0.1390943E+01
  0.1700000E+01  0.2530000E+04 -0.1565845E+01  0.2011675E-03  0.3099210E+01  0.7630540E+04 -0.3202794E-01  0.2529113E-03  0.3118336E+01  0.3236150E+03  0.1575753E+01  0.4754911E-04 -0.7676700E+00
  0.1800000E+01  0.2759863E+04 -0.1564275E+01  0.9972117E-03  0.2773744E-01  0.7370641E+04 -0.3870244E-01  0.2533644E-03 -0.3122801E+01  0.3550683E+03  0.1577325E+01  0.5330588E-04 -0.1520968E+00
  0.1900000E+01  0.3005216E+04 -0.1562214E+01  0.1487898E-02  0.4632549E-01  0.7103519E+04 -0.4667292E-01  0.1547967E-04 -0.2770203E+01  0.3891565E+03  0.1579390E+01  0.1099317E-03 -0.2027897E+01
  0.2000000E+01  0.3272036E+04 -0.1559526E+01  0.1487960E-02  0.3124087E+01  0.6829358E+04 -0.5635370E-01  0.7348621E-03  0.3129244E+01  0.4268716E+03  0.1582085E+01  0.2360873E-04 -0.2593163E+01
