VARIABLES="w (rad/s)"
"A   1   1" "B   1   1"
"A   1   2" "B   1   2"
"A   1   3" "B   1   3"
"A   1   4" "B   1   4"
"A   1   5" "B   1   5"
"A   1   6" "B   1   6"
Zone t="Motion of body    1 in DoF   1",I=    19,F=POINT
  0.2000000E+00  0.3304106E+03  0.2891224E-02  0.2980232E-06 -0.4547474E-11  0.2816319E-04  0.1049363E-05 -0.1862645E-07  0.4092726E-11 -0.5877171E+02 -0.3495642E-03 -0.2384186E-05  0.1309672E-09
  0.3000000E+00  0.3311350E+03  0.9985667E-02  0.1490116E-06  0.1091394E-10 -0.4793207E-05 -0.6789251E-06 -0.7450581E-07  0.2728484E-11 -0.5890315E+02 -0.1209217E-02  0.1462797E-04  0.3437890E-09
  0.4000000E+00  0.3314658E+03  0.2446944E-01 -0.5215406E-06  0.7275958E-10  0.2384186E-05  0.3874811E-06 -0.1303852E-06  0.2182787E-10 -0.5891308E+02 -0.2964927E-02 -0.8642673E-05  0.1527951E-09
  0.5000000E+00  0.3330728E+03  0.4996427E-01  0.1788139E-06  0.4365575E-10  0.7298589E-04  0.8597315E-05  0.5960464E-07  0.7275958E-11 -0.5914941E+02 -0.6067472E-02 -0.3695488E-05 -0.3463356E-08
  0.6000000E+00  0.3335738E+03  0.9102501E-01  0.1490116E-06 -0.5820766E-10 -0.3154079E-05  0.5900365E-06  0.1117587E-06  0.1746230E-09 -0.5917869E+02 -0.1107383E-01  0.1318753E-04 -0.1178705E-08
  0.7000000E+00  0.3347171E+03  0.1540161E+00  0.6386212E-06 -0.1746230E-09  0.2320324E-04  0.1462788E-05 -0.1277242E-06  0.4365575E-09 -0.5935469E+02 -0.1878732E-01  0.7684742E-05  0.4336471E-08
  0.8000000E+00  0.3368338E+03  0.2479752E+00  0.1490116E-06  0.6402843E-09 -0.4742295E-04 -0.9372889E-05 -0.1862645E-07 -0.1455192E-09 -0.5963636E+02 -0.3034267E-01  0.9723008E-05 -0.8352799E-08
  0.9000000E+00  0.3382407E+03  0.3842385E+00  0.8609560E-06 -0.9313226E-09  0.1158979E-05 -0.5851965E-05 -0.9934108E-07 -0.5820766E-09 -0.5984457E+02 -0.4718026E-01 -0.1721912E-04  0.2677552E-07
  0.9999999E+00  0.3397034E+03  0.5797532E+00 -0.3576279E-06 -0.2328306E-09 -0.3823638E-04 -0.1461245E-04  0.1490116E-07 -0.1164153E-09 -0.6006297E+02 -0.7146870E-01 -0.1844764E-04  0.9080395E-08
  0.1100000E+01  0.3427563E+03  0.8611557E+00 -0.7586045E-06 -0.2793968E-08 -0.2644279E-04 -0.2316665E-05 -0.1625581E-06  0.0000000E+00 -0.6053653E+02 -0.1066642E+00 -0.1522628E-04 -0.6519258E-07
  0.1200000E+01  0.3455274E+03  0.1257248E+01  0.6953875E-06 -0.1862645E-08  0.9909272E-05  0.1841225E-05 -0.3104408E-06  0.2793968E-08 -0.6088004E+02 -0.1563786E+00  0.7698933E-05 -0.2561137E-08
  0.1300000E+01  0.3481632E+03  0.1822204E+01  0.4584973E-07  0.4656613E-09  0.1416298E-03  0.5663512E-04 -0.1146243E-07  0.1164153E-08 -0.6125920E+02 -0.2277893E+00 -0.3347030E-05 -0.1187436E-07
  0.1400000E+01  0.3510735E+03  0.2622793E+01  0.5108969E-06 -0.6519258E-08  0.5372933E-04  0.2059480E-04  0.2128737E-07 -0.1164153E-08 -0.6174115E+02 -0.3299100E+00  0.5066395E-05 -0.9266660E-07
  0.1500000E+01  0.3551089E+03  0.3742682E+01 -0.4768372E-06 -0.1396984E-07  0.1024008E-03  0.4748069E-04 -0.1788139E-06  0.1862645E-08 -0.6227534E+02 -0.4731147E+00 -0.4212061E-05 -0.3054738E-06
  0.1600000E+01  0.3598169E+03  0.5339948E+01 -0.1490116E-06 -0.3725290E-08  0.9346753E-04  0.5334523E-04 -0.3725290E-07 -0.4656613E-09 -0.6293605E+02 -0.6789606E+00  0.8940697E-06 -0.3352761E-07
  0.1700000E+01  0.3647047E+03  0.7598060E+01  0.2804924E-06  0.1117587E-07  0.1656658E-03  0.1022741E-03  0.0000000E+00 -0.6519258E-08 -0.6367945E+02 -0.9730340E+00 -0.1016785E-05  0.1117587E-06
  0.1800000E+01  0.3693906E+03  0.1068629E+02 -0.8609560E-06 -0.2235174E-07  0.7404222E-04  0.1537856E-03  0.8278423E-07  0.0000000E+00 -0.6431531E+02 -0.1376361E+01  0.4039870E-05 -0.4656613E-07
  0.1900000E+01  0.3744994E+03  0.1497891E+02 -0.5019339E-06 -0.5960464E-07  0.1534349E-03  0.2312139E-03  0.1411689E-06  0.3725290E-08 -0.6507022E+02 -0.1942160E+01  0.7466266E-05  0.6183982E-06
  0.2000000E+01  0.3815770E+03  0.2093966E+02 -0.5960464E-07 -0.3725290E-07 -0.2788603E-03 -0.3492758E-03 -0.8940697E-07 -0.1862645E-07 -0.6616676E+02 -0.2735947E+01 -0.1034141E-04 -0.7003546E-06
Zone t="Motion of body    1 in DoF   2",I=    19,F=POINT
  0.2000000E+00  0.0000000E+00 -0.1455192E-10  0.3304105E+03  0.2891360E-02 -0.5215406E-05  0.3637979E-11  0.5877171E+02  0.3496042E-03 -0.9313226E-07  0.2501110E-11 -0.2719462E-05 -0.2353772E-08
  0.3000000E+00 -0.9934107E-07  0.3274181E-10  0.3311351E+03  0.9986066E-02  0.9263555E-05  0.2746674E-09  0.5890315E+02  0.1209351E-02 -0.9934107E-07  0.6366463E-11  0.2086163E-05 -0.5948095E-09
  0.4000000E+00 -0.1490116E-06 -0.4365575E-10  0.3314659E+03  0.2447023E-01  0.2384186E-05  0.1200533E-08  0.5891312E+02  0.2965112E-02  0.1862645E-06  0.0000000E+00  0.6332994E-06  0.6282789E-08
  0.5000000E+00  0.4768372E-06 -0.2182787E-09  0.3330727E+03  0.4996397E-01  0.8344650E-06 -0.9895302E-09  0.5914945E+02  0.6067468E-02 -0.7450581E-07 -0.2910383E-10 -0.2622604E-05 -0.4591129E-08
  0.6000000E+00  0.9934107E-07 -0.6111804E-09  0.3335738E+03  0.9102483E-01 -0.6382664E-05  0.1236913E-08  0.5917870E+02  0.1107359E-01 -0.1986821E-06  0.5093170E-10 -0.2582868E-05 -0.2924935E-08
  0.7000000E+00 -0.7663455E-06 -0.5238689E-09  0.3347172E+03  0.1540168E+00 -0.3661428E-05  0.2997695E-08  0.5935471E+02  0.1878747E-01  0.1702990E-06 -0.2764864E-09 -0.2128737E-06 -0.3608875E-08
  0.8000000E+00  0.5215406E-06 -0.2910383E-09  0.3368338E+03  0.2479768E+00 -0.9275973E-05  0.7683411E-08  0.5963640E+02  0.3034286E-01 -0.5587935E-07  0.5820766E-10 -0.1899898E-05  0.1135049E-07
  0.9000000E+00 -0.5298191E-06  0.0000000E+00  0.3382407E+03  0.3842390E+00  0.7914173E-05 -0.5238689E-08  0.5984461E+02  0.4717999E-01 -0.2649095E-06 -0.8731149E-10  0.8212196E-05 -0.8672941E-08
  0.9999999E+00 -0.1549721E-05  0.2095476E-08  0.3397034E+03  0.5797504E+00 -0.2205372E-05  0.5541369E-07  0.6006301E+02  0.7146779E-01 -0.1788140E-06  0.5820766E-10 -0.4768372E-06  0.1012813E-07
  0.1100000E+01  0.5418604E-06 -0.5820766E-08  0.3427561E+03  0.8611561E+00 -0.1351942E-04  0.1257285E-07  0.6053652E+02  0.1066643E+00  0.1354651E-06 -0.1746230E-08  0.5039302E-05 -0.3247987E-07
  0.1200000E+01  0.3973643E-06  0.5587935E-08  0.3455273E+03  0.1257248E+01  0.1134972E-04 -0.1043081E-06  0.6088004E+02  0.1563789E+00  0.1490116E-06 -0.3492460E-09  0.1589457E-05  0.1396984E-07
  0.1300000E+01  0.5501967E-06 -0.2793968E-08  0.3481631E+03  0.1822207E+01 -0.7427656E-05 -0.2686866E-06  0.6125916E+02  0.2277904E+00 -0.5731216E-07  0.4656613E-09  0.1054544E-05  0.4936010E-07
  0.1400000E+01  0.2554485E-06  0.1583248E-07  0.3510734E+03  0.2622790E+01 -0.1490116E-05  0.8847564E-08  0.6174113E+02  0.3299098E+00 -0.2128737E-07  0.2328306E-09  0.7791179E-05  0.9313226E-09
  0.1500000E+01  0.0000000E+00  0.9313226E-09  0.3551088E+03  0.3742683E+01  0.7073084E-05 -0.1648441E-06  0.6227528E+02  0.4731140E+00 -0.1986822E-07 -0.4656613E-09 -0.1037121E-04 -0.5867332E-07
  0.1600000E+01 -0.8195639E-06 -0.1117587E-07  0.3598167E+03  0.5339946E+01  0.9201467E-05  0.1294538E-06  0.6293599E+02  0.6789621E+00  0.0000000E+00 -0.1071021E-07 -0.1937151E-05  0.2793968E-07
  0.1700000E+01 -0.1402462E-05  0.5587935E-07  0.3647042E+03  0.7598037E+01 -0.2734801E-05 -0.4228204E-06  0.6367936E+02  0.9730300E+00  0.5259233E-07 -0.2793968E-08 -0.6311080E-06  0.7078052E-07
  0.1800000E+01 -0.1854367E-05  0.3725290E-08  0.3693900E+03  0.1068628E+02 -0.3907416E-05 -0.2998859E-06  0.6431521E+02  0.1376362E+01 -0.9934108E-07  0.8381903E-08  0.8145968E-05  0.2048910E-07
  0.1900000E+01 -0.1254835E-06  0.4097819E-07  0.3744992E+03  0.1497891E+02 -0.7529008E-05 -0.1035631E-05  0.6507020E+02  0.1942161E+01 -0.2352815E-06  0.1862645E-08  0.6462398E-05 -0.1601875E-06
  0.2000000E+01 -0.3576279E-06 -0.8195639E-07  0.3815774E+03  0.2093971E+02 -0.1311302E-05 -0.1322478E-05  0.6616676E+02  0.2735952E+01 -0.8940697E-07  0.2048910E-07  0.4887581E-05  0.4693866E-06
Zone t="Motion of body    1 in DoF   3",I=    19,F=POINT
  0.2000000E+00  0.1959503E-04 -0.8568168E-06 -0.2011657E-05 -0.9052455E-06  0.4656483E+03  0.1057536E+02  0.4585832E-04  0.8940697E-07  0.2942979E-05 -0.5904585E-06  0.2607703E-06 -0.6332994E-07
  0.3000000E+00 -0.1211961E-04  0.1192093E-06 -0.2811352E-04 -0.1728535E-05  0.4539025E+03  0.1598757E+02 -0.1649062E-04  0.3911555E-07  0.6457170E-06 -0.2011657E-06  0.4967054E-06 -0.7078052E-07
  0.4000000E+00  0.6034970E-05  0.3501773E-06 -0.3904104E-04 -0.9238720E-06  0.4448712E+03  0.2155658E+02 -0.9611249E-05  0.5960464E-07 -0.6593764E-05  0.2048910E-06 -0.1862645E-06 -0.3725290E-07
  0.5000000E+00 -0.7867813E-05 -0.3278255E-06 -0.1716614E-04 -0.1952052E-05  0.4380283E+03  0.2734742E+02 -0.1156330E-04 -0.1266599E-06  0.6556511E-06 -0.9499490E-06  0.6854534E-06 -0.1639128E-06
  0.6000000E+00 -0.2761682E-04 -0.2279878E-05  0.1033147E-04 -0.6392598E-05  0.4319827E+03  0.3339591E+02 -0.3059705E-04 -0.1490116E-07  0.1380841E-04  0.4470348E-07 -0.4718701E-06  0.1490116E-07
  0.7000000E+00 -0.3278255E-04  0.1996756E-05  0.2878053E-04  0.1132488E-05  0.4281724E+03  0.3981347E+02  0.2639634E-04 -0.1266599E-06  0.1055854E-04  0.5513430E-06  0.1702990E-06 -0.3576279E-06
  0.8000000E+00 -0.7934868E-04  0.3784895E-05 -0.9983778E-05  0.4529953E-05  0.4239866E+03  0.4663813E+02  0.2488494E-04 -0.7450581E-08  0.7189810E-05 -0.1013279E-05  0.4470348E-06  0.0000000E+00
  0.9000000E+00 -0.6715457E-04  0.6556511E-06 -0.1894103E-04 -0.5096197E-05  0.4214320E+03  0.5400440E+02  0.4238553E-05 -0.1050532E-05  0.3543165E-05  0.9536743E-06  0.3642506E-06  0.1490116E-07
  0.9999999E+00 -0.8821488E-04  0.4470348E-06 -0.6675721E-05 -0.2145767E-05  0.4177585E+03  0.6186003E+02 -0.2574921E-04  0.5811453E-06  0.1281500E-05  0.1251698E-05 -0.4470349E-06 -0.1639128E-06
  0.1100000E+01 -0.7477674E-05 -0.4738569E-05  0.1945279E-04 -0.2044439E-04  0.4159352E+03  0.7068906E+02 -0.1733953E-05  0.1654029E-05  0.8507208E-05 -0.2235174E-06 -0.2709302E-06 -0.8940697E-07
  0.1200000E+01  0.3476937E-06  0.8463860E-05  0.8791685E-05 -0.2294779E-05  0.4126212E+03  0.7988254E+02  0.3193815E-04  0.1460314E-05 -0.2980232E-06 -0.1028180E-05  0.3476937E-06  0.2980232E-06
  0.1300000E+01 -0.4823391E-04 -0.7748604E-05 -0.2640944E-04 -0.1066923E-04  0.4096877E+03  0.9018343E+02  0.3026082E-05  0.6705523E-06 -0.4126476E-06 -0.1490116E-05  0.2292486E-07  0.1639128E-06
  0.1400000E+01 -0.1983983E-04 -0.4768372E-06  0.5534717E-05  0.2396107E-04  0.4081045E+03  0.1018325E+03 -0.1660415E-05  0.1579523E-05 -0.5790166E-05 -0.2682209E-06 -0.4257475E-07 -0.2980232E-06
  0.1500000E+01 -0.1343091E-04 -0.1353025E-04 -0.4069011E-04  0.3099442E-05  0.4040758E+03  0.1135053E+03 -0.3099442E-05 -0.1490116E-06 -0.5801519E-05 -0.1341105E-06  0.0000000E+00  0.2384186E-06
  0.1600000E+01 -0.9536743E-05  0.9238720E-05  0.2130866E-04  0.7331371E-05  0.4005522E+03  0.1267418E+03 -0.9201467E-05 -0.5811453E-05 -0.9648502E-05 -0.3427267E-06  0.3725290E-06  0.2384186E-06
  0.1700000E+01  0.1647893E-04  0.6914139E-05  0.1150019E-04 -0.1651049E-04  0.3978729E+03  0.1416618E+03 -0.2836480E-04 -0.1162291E-05 -0.1532190E-04 -0.4321337E-05  0.3155540E-06 -0.2682209E-06
  0.1800000E+01  0.1689461E-03  0.1072884E-04  0.4635917E-05  0.2777576E-04  0.3923503E+03  0.1554442E+03 -0.2854400E-04 -0.3457069E-05  0.4688899E-04 -0.1639128E-05 -0.1324548E-06 -0.4470348E-06
  0.1900000E+01  0.2007735E-05 -0.1966953E-04 -0.2917491E-04  0.1227856E-04  0.3871837E+03  0.1703402E+03  0.1047787E-04 -0.7212162E-05  0.3435110E-04 -0.7063150E-05 -0.2195961E-06  0.5960464E-06
  0.2000000E+01  0.3802776E-04  0.2646446E-04  0.2980232E-05  0.8940697E-05  0.3828277E+03  0.1871824E+03  0.1904368E-04  0.1579523E-05 -0.2172589E-04  0.1072884E-05  0.5960464E-07  0.1311302E-05
Zone t="Motion of body    1 in DoF   4",I=    19,F=POINT
  0.2000000E+00 -0.1303852E-06 -0.1818989E-11  0.5792472E+02  0.3336134E-03  0.2160668E-05 -0.2785328E-10  0.2404427E+02  0.4038609E-04 -0.6053597E-07  0.8526513E-13 -0.6053597E-06  0.3788045E-09
  0.3000000E+00 -0.1055499E-06 -0.2273737E-11  0.5799578E+02  0.1153527E-02 -0.6047388E-05 -0.2205525E-10  0.2409993E+02  0.1398376E-03  0.9313226E-08  0.6821210E-12  0.4221995E-06  0.1845819E-08
  0.4000000E+00  0.9313226E-08 -0.2273737E-10  0.5798883E+02  0.2829761E-02  0.3878959E-05  0.8776624E-10  0.2409132E+02  0.3428711E-03 -0.3026798E-07  0.0000000E+00  0.4749745E-06  0.2042270E-08
  0.5000000E+00 -0.8940697E-07  0.9094947E-11  0.5825666E+02  0.5790574E-02 -0.4842877E-05  0.1291482E-09  0.2412512E+02  0.7032175E-03  0.1862645E-07  0.3183231E-11  0.1445413E-05 -0.6093615E-10
  0.6000000E+00 -0.6208817E-07 -0.3637979E-10  0.5828834E+02  0.1057632E-01  0.5594144E-05 -0.1036824E-09  0.2409968E+02  0.1286787E-02 -0.6208817E-08 -0.8185452E-11  0.3104408E-07 -0.2328306E-08
  0.7000000E+00  0.0000000E+00 -0.4365575E-10  0.5843044E+02  0.1794512E-01  0.7557018E-06 -0.6293703E-09  0.2413647E+02  0.2189303E-02  0.5321843E-08  0.5456968E-11  0.6599086E-06 -0.3125024E-08
  0.8000000E+00  0.0000000E+00 -0.1164153E-09  0.5874631E+02  0.2899832E-01 -0.1071021E-04 -0.2037268E-09  0.2416739E+02  0.3548548E-02 -0.6984919E-08 -0.2182787E-10 -0.1695007E-05  0.3106834E-08
  0.9000000E+00  0.0000000E+00  0.7275958E-10  0.5890517E+02  0.4509993E-01  0.6010135E-05 -0.2299203E-08  0.2421141E+02  0.5538051E-02 -0.4967054E-07  0.3637979E-11  0.1655685E-05  0.1571607E-08
  0.9999999E+00  0.1490116E-07 -0.2910383E-10  0.5914170E+02  0.6834179E-01 -0.4462898E-05  0.1600711E-08  0.2422401E+02  0.8425014E-02 -0.2607704E-07  0.2910383E-10  0.1616776E-05 -0.1426088E-08
  0.1100000E+01  0.4063953E-07 -0.4947651E-09  0.5959364E+02  0.1019946E+00  0.2174215E-05  0.2008164E-08  0.2432611E+02  0.1263372E-01  0.3386627E-08 -0.7275958E-10  0.2316453E-05 -0.9618816E-08
  0.1200000E+01  0.9934107E-07 -0.3492460E-09  0.5995362E+02  0.1496685E+00 -0.2309680E-05 -0.5267793E-08  0.2434252E+02  0.1861587E-01 -0.6208817E-08 -0.1164153E-09  0.8195638E-06  0.9895302E-09
  0.1300000E+01 -0.8023702E-07 -0.8149073E-09  0.6031590E+02  0.2181449E+00 -0.7261451E-05 -0.3259629E-08  0.2439514E+02  0.2727047E-01  0.5731216E-08 -0.2328306E-09  0.3324105E-06  0.9371433E-08
  0.1400000E+01  0.7450581E-07 -0.5820766E-09  0.6073458E+02  0.3159679E+00 -0.1044146E-04 -0.8789357E-08  0.2450409E+02  0.3976245E-01  0.0000000E+00  0.4074536E-09  0.9153571E-06 -0.1507578E-07
  0.1500000E+01  0.3973643E-07  0.1746230E-08  0.6131479E+02  0.4533927E+00  0.2160668E-05  0.3224704E-07  0.2453530E+02  0.5730343E-01 -0.4967054E-08 -0.1164153E-09 -0.2582868E-05  0.4598405E-07
  0.1600000E+01 -0.9313226E-08  0.5355105E-08  0.6196893E+02  0.6511138E+00 -0.7236376E-05  0.1396984E-07  0.2462902E+02  0.8276984E-01  0.4889444E-07  0.1746230E-09  0.1117587E-06  0.1222361E-07
  0.1700000E+01 -0.1139501E-06 -0.2561137E-08  0.6264766E+02  0.9337860E+00  0.3173071E-05 -0.2328306E-09  0.2477679E+02  0.1196496E+00  0.1533943E-07 -0.1164153E-09  0.1148266E-05 -0.1210719E-07
  0.1800000E+01 -0.9934108E-07 -0.3725290E-08  0.6329539E+02  0.1321531E+01 -0.9379453E-05 -0.2118759E-07  0.2482083E+02  0.1702118E+00 -0.2069606E-07 -0.8149073E-09  0.2607703E-05  0.1559965E-07
  0.1900000E+01 -0.1568543E-07 -0.1722947E-07  0.6401659E+02  0.1865513E+01 -0.6180061E-05 -0.2384186E-06  0.2492933E+02  0.2418752E+00  0.1764611E-07 -0.1629815E-08  0.2690052E-05  0.6239861E-07
  0.2000000E+01  0.4470348E-07  0.7450581E-08  0.6506062E+02  0.2628796E+01  0.2048910E-05 -0.1084991E-06  0.2514174E+02  0.3437386E+00  0.1676381E-07 -0.6984919E-09  0.4768372E-06  0.1187436E-06
Zone t="Motion of body    1 in DoF   5",I=    19,F=POINT
  0.2000000E+00 -0.5792468E+02 -0.3335675E-03  0.3725290E-07 -0.2273737E-11 -0.1196284E-04 -0.4721749E-06 -0.4656613E-08  0.4547474E-12  0.2404426E+02  0.4038370E-04  0.6053597E-06 -0.2091838E-10
  0.3000000E+00 -0.5799577E+02 -0.1153496E-02 -0.1241763E-07  0.6366463E-11 -0.6010135E-05 -0.1119406E-07  0.4346172E-07 -0.2273737E-12  0.2409995E+02  0.1397767E-03 -0.3290673E-06 -0.6139089E-11
  0.4000000E+00 -0.5798883E+02 -0.2829603E-02 -0.3725290E-07 -0.1818989E-11  0.2062880E-05  0.1051380E-06  0.6984919E-08  0.5684342E-11  0.2409131E+02  0.3428441E-03  0.2258457E-05  0.1327862E-09
  0.5000000E+00 -0.5825663E+02 -0.5790720E-02  0.1490116E-07 -0.7275958E-11 -0.3784895E-05 -0.5793800E-06 -0.4470348E-07  0.8640200E-11  0.2412512E+02  0.7032346E-03  0.4433095E-05 -0.1728040E-10
  0.6000000E+00 -0.5828832E+02 -0.1057670E-01 -0.3725290E-07 -0.3637979E-11  0.5140901E-05 -0.5223919E-06 -0.3725290E-07 -0.6366463E-11  0.2409969E+02  0.1286931E-02  0.2514571E-06 -0.1691660E-09
  0.7000000E+00 -0.5843044E+02 -0.1794554E-01  0.4257475E-07 -0.1455192E-10 -0.6774706E-05 -0.1012562E-05 -0.5321843E-08  0.1818989E-11  0.2413648E+02  0.2189459E-02 -0.1788139E-05  0.8913048E-09
  0.8000000E+00 -0.5874629E+02 -0.2899835E-01  0.2793968E-07 -0.7275958E-11  0.6281771E-05  0.1020031E-05  0.1862645E-07  0.4001777E-10  0.2416740E+02  0.3548408E-02  0.1769513E-06 -0.5311449E-09
  0.9000000E+00 -0.5890514E+02 -0.4510005E-01  0.8278423E-08 -0.5820766E-10 -0.1323720E-04 -0.2555324E-05 -0.2069606E-07  0.2182787E-10  0.2421141E+02  0.5538202E-02 -0.3336205E-05  0.1753506E-08
  0.9999999E+00 -0.5914167E+02 -0.6834221E-01 -0.3725291E-07  0.1455192E-09 -0.8001924E-05 -0.2283210E-05 -0.3725291E-07  0.4365575E-10  0.2422401E+02  0.8424909E-02 -0.8642675E-06  0.1957233E-08
  0.1100000E+01 -0.5959364E+02 -0.1019937E+00 -0.6773255E-08  0.1164153E-09  0.3969127E-05 -0.1309963E-05 -0.1693314E-07  0.8731149E-10  0.2432611E+02  0.1263340E-01 -0.5283139E-06  0.5253241E-08
  0.1200000E+01 -0.5995360E+02 -0.1496680E+00 -0.7450581E-07 -0.6402843E-09 -0.1949569E-05 -0.2454326E-06 -0.9313226E-08  0.1455192E-09  0.2434254E+02  0.1861567E-01  0.7295360E-06 -0.5587935E-08
  0.1300000E+01 -0.6031589E+02 -0.2181443E+00 -0.1146243E-06 -0.1164153E-09 -0.5720900E-04 -0.2074015E-04 -0.5731216E-08  0.2910383E-10  0.2439515E+02  0.2727043E-01 -0.1364029E-05  0.3026798E-08
  0.1400000E+01 -0.6073455E+02 -0.3159670E+00 -0.1064369E-07  0.5820766E-09 -0.3329877E-04 -0.1092930E-04  0.5321843E-08  0.2910383E-10  0.2450413E+02  0.3976244E-01 -0.2964267E-05  0.2369052E-07
  0.1500000E+01 -0.6131474E+02 -0.4533920E+00  0.4967054E-07 -0.3259629E-08 -0.4846851E-04 -0.1935288E-04 -0.1738469E-07 -0.5820766E-10  0.2453533E+02  0.5730380E-01 -0.1301368E-05 -0.1356238E-07
  0.1600000E+01 -0.6196887E+02 -0.6511087E+00 -0.1862645E-07 -0.9313226E-09 -0.6387010E-04 -0.2793910E-04 -0.1629815E-07  0.0000000E+00  0.2462909E+02  0.8276931E-01  0.3236346E-05  0.1315493E-07
  0.1700000E+01 -0.6264769E+02 -0.9337877E+00  0.6135772E-07 -0.1164153E-08 -0.6673091E-04 -0.3029802E-04 -0.6574041E-08 -0.2328306E-09  0.2477688E+02  0.1196500E+00 -0.2848751E-06 -0.3154855E-07
  0.1800000E+01 -0.6329554E+02 -0.1321536E+01 -0.1076195E-06 -0.4656613E-08  0.1645171E-03  0.5196431E-04 -0.1862645E-07 -0.9313226E-09  0.2482086E+02  0.1702122E+00  0.1626710E-05  0.2793968E-07
  0.1900000E+01 -0.6401658E+02 -0.1865511E+01 -0.7058445E-07 -0.1862645E-08  0.9944564E-05 -0.4818896E-04 -0.5489902E-07  0.1629815E-08  0.2492935E+02  0.2418751E+00  0.2560647E-05 -0.2910383E-07
  0.2000000E+01 -0.6506053E+02 -0.2628788E+01  0.1490116E-07  0.1396984E-07  0.6379932E-04  0.8525094E-04  0.1862645E-08  0.0000000E+00  0.2514174E+02  0.3437380E+00 -0.5926937E-05  0.1480803E-06
Zone t="Motion of body    1 in DoF   6",I=    19,F=POINT
  0.2000000E+00  0.1471490E-05  0.2198242E-13  0.7059425E-05 -0.2582047E-08 -0.4000178E-08 -0.1769418E-15  0.9746706E-06 -0.6020788E-09 -0.1219617E-06  0.5898060E-14  0.2032752E+02  0.2010932E-06
  0.3000000E+00  0.4470348E-06 -0.2664535E-14 -0.1179675E-05 -0.5843926E-08 -0.4746544E-08 -0.8604228E-15 -0.8961132E-06 -0.2357616E-08 -0.1399027E-05 -0.2166323E-13  0.2045138E+02  0.2284834E-06
  0.4000000E+00 -0.1136214E-05  0.2753353E-13  0.3539026E-05 -0.2896967E-08  0.1632905E-07 -0.7771561E-15  0.1050343E-05 -0.1171202E-08 -0.1426975E-05 -0.4968248E-14  0.2044378E+02 -0.1256471E-06
  0.5000000E+00 -0.5826354E-05 -0.4574119E-13 -0.1055002E-04 -0.1819195E-07  0.1370857E-07  0.3497203E-14 -0.9260487E-06 -0.2201033E-08  0.2594351E-05 -0.2700618E-13  0.2054298E+02  0.4275031E-06
  0.6000000E+00  0.3601114E-06  0.3108624E-14  0.6705523E-06  0.8098464E-09 -0.1659805E-07  0.8881784E-15  0.4365768E-06  0.5406080E-09 -0.1656571E-05 -0.1798561E-13  0.2049846E+02  0.9951176E-07
  0.7000000E+00 -0.2682209E-05  0.6883383E-13 -0.1490116E-06  0.5480806E-08  0.4996836E-08 -0.1065814E-13  0.6413513E-06  0.5570113E-08  0.8388822E-07  0.4640732E-13  0.2049946E+02 -0.6108431E-06
  0.8000000E+00 -0.3054738E-05  0.3641532E-13 -0.6183982E-05  0.1846655E-08  0.5134551E-08  0.9992007E-15 -0.1211162E-05  0.3628541E-08  0.3055460E-05 -0.5345724E-13  0.2057531E+02 -0.7260153E-06
  0.9000000E+00  0.1341105E-05 -0.4796163E-13  0.4106098E-05 -0.1048851E-07  0.1489242E-07 -0.9769963E-14  0.5205100E-06 -0.4345043E-08  0.2067540E-05  0.5828671E-15  0.2055882E+02  0.2715059E-06
  0.9999999E+00  0.5960465E-06 -0.4618528E-13  0.5841256E-05  0.7211863E-08 -0.5398193E-08 -0.4218847E-14  0.1192237E-05 -0.4065808E-08 -0.1430368E-05 -0.2673417E-12  0.2050337E+02  0.3166857E-05
  0.1100000E+01  0.5852092E-05 -0.2642331E-13  0.2208081E-05  0.1379756E-07 -0.9624317E-08 -0.1768030E-13  0.1295028E-05  0.6245640E-08 -0.7062940E-07 -0.2805950E-12  0.2060154E+02 -0.2025836E-05
  0.1200000E+01 -0.4023314E-05  0.5071499E-12  0.9586413E-05  0.6502608E-07  0.7045564E-09 -0.6716849E-14  0.8185545E-06  0.8056324E-08  0.2100675E-05  0.5324352E-12  0.2062060E+02 -0.3985832E-05
  0.1300000E+01 -0.2556122E-05 -0.1598721E-12  0.1169168E-05  0.5130620E-07 -0.6553349E-08 -0.6328271E-14 -0.1003586E-06  0.5911799E-08 -0.4486172E-05  0.5256906E-13  0.2061051E+02  0.7359007E-06
  0.1400000E+01 -0.8514949E-07 -0.2735590E-11  0.7056764E-05  0.1330904E-07 -0.2688694E-08 -0.2975398E-13  0.7642796E-06 -0.8529606E-08 -0.1851406E-05 -0.2653433E-12  0.2058070E+02  0.2557069E-04
  0.1500000E+01 -0.1649062E-05 -0.4263256E-12 -0.4371007E-05 -0.5641331E-07  0.1033757E-08  0.5373479E-13 -0.6972691E-06 -0.1680979E-07  0.2913779E-05  0.5238032E-12  0.2062598E+02 -0.3972434E-05
  0.1600000E+01 -0.1024455E-05  0.1037392E-10 -0.9499490E-06 -0.3603009E-07  0.1130150E-07 -0.3741452E-13 -0.2579916E-06  0.1535405E-07 -0.5618356E-06 -0.4500622E-11  0.2069035E+02 -0.5168081E-04
  0.1700000E+01  0.7012311E-06 -0.5570655E-11  0.5399480E-05  0.2869178E-07 -0.2067480E-07 -0.4662937E-14  0.1513572E-05 -0.3671125E-07 -0.8125432E-06 -0.1084621E-10  0.2072098E+02 -0.6057231E-04
  0.1800000E+01  0.4486905E-05 -0.3979039E-11  0.1291434E-04  0.5870042E-06  0.6352205E-08 -0.1869616E-12  0.2758523E-05  0.5955942E-07 -0.3955559E-06 -0.3129275E-11  0.2069054E+02  0.5996532E-04
  0.1900000E+01  0.1019553E-05  0.9436008E-11  0.1521487E-04  0.6766073E-06  0.1149951E-07 -0.1204203E-11  0.4016882E-05  0.7248502E-07  0.5042769E-07  0.2068704E-10  0.2064878E+02  0.3901895E-03
  0.2000000E+01  0.5766749E-05 -0.1500666E-10 -0.5647540E-05  0.5674165E-06  0.6566836E-10  0.4756195E-12  0.1115053E-05  0.9488658E-07  0.5814055E-06 -0.5377920E-11  0.2074676E+02 -0.6485255E-04
