VARIABLES="w (rad/s)"
"abs(F   1   1)" "angle(F   1   1)"
"abs(F   1   2)" "angle(F   1   2)"
"abs(F   1   3)" "angle(F   1   3)"
"abs(F   1   4)" "angle(F   1   4)"
"abs(F   1   5)" "angle(F   1   5)"
"abs(F   1   6)" "angle(F   1   6)"
Zone t="FKforce - beta =   0.000",I=    19,F=POINT
  0.2000000E+00  0.1439159E+03 -0.1570807E+01  0.6599426E-03 -0.9031792E-04  0.1003544E+05 -0.3801226E-09  0.3814697E-04  0.3141593E+01  0.1209785E+02  0.1570774E+01  0.1524624E-04 -0.2637722E+01
  0.3000000E+00  0.2165222E+03 -0.1570792E+01  0.2021790E-03  0.3141003E+01  0.1001070E+05 -0.5954097E-11  0.6675763E-04  0.3571413E-02  0.1822211E+02  0.1570797E+01  0.3445934E-04  0.4829876E+00
  0.4000000E+00  0.2899212E+03 -0.1570794E+01  0.4615784E-03 -0.5165289E-03  0.9976062E+04  0.1194953E-10  0.1718103E-04  0.4164258E-01  0.2443844E+02  0.1570792E+01  0.2127176E-04  0.2682958E+01
  0.5000000E+00  0.3643993E+03 -0.1570798E+01  0.3434241E-04 -0.3117292E+01  0.9931592E+04  0.0000000E+00  0.2861079E-04  0.3135343E+01  0.3077997E+02  0.1570788E+01  0.2920628E-05  0.1570796E+01
  0.6000000E+00  0.4402663E+03 -0.1570799E+01  0.1319885E-02  0.0000000E+00  0.9877316E+04 -0.1206900E-10  0.1010898E-03 -0.2358486E-02  0.3728209E+02  0.1570794E+01  0.5863268E-04 -0.2716143E+01
  0.7000000E+00  0.5178566E+03 -0.1570801E+01  0.1335163E-03  0.5357092E-02  0.9813273E+04  0.0000000E+00  0.9536930E-05 -0.3135343E+01  0.4398281E+02  0.1570789E+01  0.2614464E-05 -0.7531513E+00
  0.8000000E+00  0.5975383E+03 -0.1570793E+01  0.2671246E-04 -0.3114813E+01  0.9739491E+04  0.7343871E-10  0.1602184E-03  0.3137872E+01  0.5092407E+02  0.1570796E+01  0.2883288E-04  0.3017238E+01
  0.9000000E+00  0.6797154E+03 -0.1570799E+01  0.1201630E-02  0.1984127E-03  0.9656120E+04  0.0000000E+00  0.9918213E-04  0.0000000E+00  0.5815208E+02  0.1570794E+01  0.3611471E-04  0.2826105E+01
  0.9999999E+00  0.7648365E+03 -0.1570798E+01  0.8010864E-04  0.3141593E+01  0.9563191E+04  0.2493086E-10  0.1339448E-04 -0.8018485E-01  0.6571660E+02  0.1570793E+01  0.3315154E-04  0.1218339E+01
  0.1100000E+01  0.8533929E+03 -0.1570795E+01  0.1800537E-02  0.5296610E-03  0.9460859E+04 -0.2520052E-10  0.2326970E-03  0.2049177E-02  0.7367294E+02  0.1570796E+01  0.5343037E-04  0.2013489E+01
  0.1200000E+01  0.9459288E+03 -0.1570796E+01  0.9922338E-04  0.3112755E+01  0.9349246E+04  0.7650411E-10  0.1258855E-03  0.3138752E+01  0.8208324E+02  0.1570792E+01  0.4736376E-04  0.2596296E+00
  0.1300000E+01  0.1043023E+04 -0.1570795E+01  0.4081863E-03 -0.8177388E-02  0.9228536E+04 -0.5166986E-10  0.3204360E-03  0.3138617E+01  0.9101266E+02  0.1570794E+01  0.5053181E-04  0.7152792E+00
  0.1400000E+01  0.1145291E+04 -0.1570796E+01  0.4806519E-03  0.0000000E+00  0.9098944E+04  0.5240577E-10  0.9155770E-04 -0.1041629E-01  0.1005310E+03  0.1570796E+01  0.4505102E-04 -0.2315019E+01
  0.1500000E+01  0.1253358E+04 -0.1570796E+01  0.1968384E-02 -0.4844961E-03  0.8960729E+04  0.1596423E-09  0.1792922E-03 -0.3137603E+01  0.1107104E+03  0.1570794E+01  0.5975704E-04  0.1763497E+01
  0.1600000E+01  0.1367819E+04 -0.1570798E+01  0.1052929E-02  0.1177482E-01  0.8814195E+04  0.5409877E-10  0.1983666E-03  0.3136785E+01  0.1216231E+03  0.1570795E+01  0.7523192E-04 -0.1443690E+01
  0.1700000E+01  0.1489198E+04 -0.1570796E+01  0.2212709E-03  0.3128662E+01  0.8659705E+04 -0.3469026E-08  0.2431871E-03 -0.3140612E+01  0.1333334E+03  0.1570796E+01  0.8267901E-04 -0.1167798E+01
  0.1800000E+01  0.1617883E+04 -0.1570796E+01  0.9498716E-03  0.5020038E-02  0.8497684E+04  0.0000000E+00  0.2918247E-03 -0.3139959E+01  0.1458943E+03  0.1570795E+01  0.5376431E-04  0.1155543E+00
  0.1900000E+01  0.1754058E+04 -0.1570797E+01  0.1529718E-02  0.5610914E-02  0.8328546E+04  0.3435201E-09  0.1621422E-04 -0.3126888E+01  0.1593434E+03  0.1570797E+01  0.1152329E-03 -0.1997424E+01
  0.2000000E+01  0.1897653E+04 -0.1570796E+01  0.1636510E-02  0.3139262E+01  0.8152792E+04  0.1169752E-09  0.8544930E-03  0.3140198E+01  0.1736882E+03  0.1570799E+01  0.2598216E-04 -0.2395136E+01
