VARIABLES="w (rad/s)"
"abs(F   1   1)" "angle(F   1   1)"
"abs(F   1   2)" "angle(F   1   2)"
"abs(F   1   3)" "angle(F   1   3)"
"abs(F   1   4)" "angle(F   1   4)"
"abs(F   1   5)" "angle(F   1   5)"
"abs(F   1   6)" "angle(F   1   6)"
Zone t="Diffraction force - beta =   0.000 deg",I=   286,F=POINT
  0.1500000E+00  0.3952167E+03 -0.1570777E+01  0.9150656E-03  0.6513706E-03  0.2005793E+05 -0.2367371E-03  0.2424642E-02 -0.1659344E-03  0.4921755E+02  0.1570818E+01  0.8587725E-04  0.4760347E+00
  0.1600000E+00  0.4211445E+03 -0.1570771E+01  0.3735201E-03  0.9973465E-03  0.2005105E+05 -0.2695875E-03  0.4790501E-03 -0.3140815E+01  0.5246463E+02  0.1570819E+01  0.3227724E-04  0.2061494E+01
  0.1700000E+00  0.4488095E+03 -0.1570766E+01  0.6404372E-03  0.3140616E+01  0.2004366E+05 -0.3043117E-03  0.4803889E-02  0.3141537E+01  0.5591928E+02  0.1570813E+01  0.1650537E-03 -0.1131372E+00
  0.1800000E+00  0.4743799E+03 -0.1570763E+01  0.1506398E-04  0.6929886E-01  0.2003592E+05 -0.3417163E-03  0.1471266E-02  0.1620496E-03  0.5906061E+02  0.1570826E+01  0.1171608E-04 -0.1712646E+00
  0.1900000E+00  0.5027315E+03 -0.1570768E+01  0.1915097E-02 -0.1711796E-03  0.2002774E+05 -0.3806075E-03  0.1966089E-02  0.3141441E+01  0.6267298E+02  0.1570819E+01  0.1534202E-03 -0.3028002E+01
  0.2000000E+00  0.5283867E+03 -0.1570756E+01  0.1410649E-02  0.1288728E-02  0.2001908E+05 -0.4226721E-03  0.2776042E-02  0.1878719E-03  0.6587615E+02  0.1570822E+01  0.9678664E-04 -0.2950288E+01
  0.2100000E+00  0.5548051E+03 -0.1570757E+01  0.9838940E-03 -0.3634820E-03  0.2000993E+05 -0.4664008E-03  0.3112406E-03  0.7660275E-03  0.6916212E+02  0.1570824E+01  0.1945821E-03  0.3133398E+01
  0.2200000E+00  0.5813936E+03 -0.1570752E+01  0.3786220E-04  0.3306532E-01  0.2000030E+05 -0.5123958E-03  0.3455633E-03  0.3135987E+01  0.7250045E+02  0.1570835E+01  0.2632731E-03  0.8942863E-02
  0.2300000E+00  0.6078769E+03 -0.1570746E+01  0.8554014E-03  0.6968034E-03  0.1999047E+05 -0.5606054E-03  0.3139392E-02  0.2468180E-03  0.7574536E+02  0.1570846E+01  0.2186307E-03 -0.3034655E+01
  0.2400000E+00  0.6348821E+03 -0.1570740E+01  0.2753971E-04  0.3083122E+01  0.1998022E+05 -0.6109108E-03  0.1972184E-02 -0.3141079E+01  0.7908142E+02  0.1570860E+01  0.4505539E-04 -0.3948164E+00
  0.2500000E+00  0.6610831E+03 -0.1570737E+01  0.2734071E-03  0.2180069E-02  0.1996950E+05 -0.6638127E-03  0.1013353E-02  0.3141534E+01  0.8242409E+02  0.1570847E+01  0.7220497E-04  0.6919017E-01
  0.2600000E+00  0.6874998E+03 -0.1570736E+01  0.5797001E-03  0.8739682E-03  0.1995836E+05 -0.7188334E-03  0.1139850E-02  0.1045835E-02  0.8574197E+02  0.1570863E+01  0.6873626E-04  0.3079768E+01
  0.2700000E+00  0.7141583E+03 -0.1570729E+01  0.6571113E-03 -0.3141320E+01  0.1994678E+05 -0.7761611E-03  0.1947701E-02  0.3141072E+01  0.8905785E+02  0.1570870E+01  0.5414617E-04 -0.8754240E+00
  0.2800000E+00  0.7411482E+03 -0.1570727E+01  0.2783263E-03 -0.3137416E+01  0.1993471E+05 -0.8358393E-03  0.5211860E-03  0.3138219E+01  0.9244974E+02  0.1570867E+01  0.1038841E-03 -0.2841027E+01
  0.2900000E+00  0.7680957E+03 -0.1570711E+01  0.1092283E-03  0.1800869E-01  0.1992218E+05 -0.8977504E-03  0.2075495E-02  0.3140272E+01  0.9585144E+02  0.1570878E+01  0.6082345E-04 -0.8658977E-01
  0.3000000E+00  0.7950612E+03 -0.1570708E+01  0.4093351E-03 -0.1019294E-02  0.1990940E+05 -0.9620176E-03  0.4179150E-02 -0.9983670E-04  0.9920641E+02  0.1570878E+01  0.9256824E-04 -0.2800853E+01
  0.3100000E+00  0.8220659E+03 -0.1570703E+01  0.2277180E-04  0.1035754E+00  0.1989629E+05 -0.1028626E-02  0.7724213E-04  0.3743424E-01  0.1025207E+03  0.1570885E+01  0.1185472E-03 -0.3092551E+01
  0.3200000E+00  0.8493278E+03 -0.1570700E+01  0.3299268E-03 -0.3140599E+01  0.1988274E+05 -0.1097664E-02  0.8185846E-03  0.3138352E+01  0.1059225E+03  0.1570904E+01  0.2263793E-04  0.1884637E+01
  0.3300000E+00  0.8764659E+03 -0.1570690E+01  0.3191841E-04  0.2801113E-02  0.1986879E+05 -0.1169155E-02  0.2001262E-03 -0.3135636E+01  0.1093686E+03  0.1570897E+01  0.3006918E-04 -0.1322453E+01
  0.3400000E+00  0.9037422E+03 -0.1570688E+01  0.3675623E-03  0.7459523E-02  0.1985442E+05 -0.1243004E-02  0.9929836E-03 -0.3141322E+01  0.1127915E+03  0.1570912E+01  0.8553101E-04 -0.2602219E+01
  0.3500000E+00  0.9309237E+03 -0.1570675E+01  0.8704673E-03 -0.3139984E+01  0.1983957E+05 -0.1319372E-02  0.1296223E-02 -0.3141270E+01  0.1161854E+03  0.1570916E+01  0.4529896E-04 -0.4270086E+00
  0.3600000E+00  0.9577654E+03 -0.1570669E+01  0.8598288E-03 -0.2114307E-02  0.1982429E+05 -0.1398275E-02  0.1312495E-02 -0.3141002E+01  0.1195272E+03  0.1570921E+01  0.1632928E-03 -0.2937969E+01
  0.3700000E+00  0.9846440E+03 -0.1570659E+01  0.6101468E-03  0.3516812E-02  0.1980856E+05 -0.1479663E-02  0.6998539E-02 -0.3141525E+01  0.1229228E+03  0.1570937E+01  0.7663941E-04  0.2148337E+01
  0.3800000E+00  0.1011461E+04 -0.1570653E+01  0.1391621E-02 -0.3139986E+01  0.1979238E+05 -0.1563423E-02  0.1894591E-03 -0.3122244E+01  0.1263201E+03  0.1570937E+01  0.1013605E-03 -0.6052099E+00
  0.3900000E+00  0.1038466E+04 -0.1570644E+01  0.1389062E-02  0.3138847E+01  0.1977575E+05 -0.1649721E-02  0.1121044E-02 -0.3141380E+01  0.1297394E+03  0.1570947E+01  0.2252362E-03 -0.2733833E+00
  0.4000000E+00  0.1065414E+04 -0.1570637E+01  0.1890982E-03 -0.3136549E+01  0.1975907E+05 -0.1738466E-02  0.2039363E-03 -0.1680639E-01  0.1330861E+03  0.1570954E+01  0.2178598E-03  0.3128118E+01
  0.4100000E+00  0.1092426E+04 -0.1570628E+01  0.1173198E-02  0.3556368E-03  0.1974194E+05 -0.1829828E-02  0.9678242E-04 -0.3111411E+01  0.1364262E+03  0.1570967E+01  0.4699440E-04  0.2177444E+01
  0.4200000E+00  0.1119768E+04 -0.1570618E+01  0.9347234E-03  0.3138914E+01  0.1972440E+05 -0.1923836E-02  0.4250527E-02 -0.4908018E-03  0.1398439E+03  0.1570976E+01  0.2364676E-03 -0.2430096E+01
  0.4300000E+00  0.1147355E+04 -0.1570609E+01  0.6113054E-03 -0.3140813E+01  0.1970646E+05 -0.2020541E-02  0.4162264E-03  0.5871335E-02  0.1433518E+03  0.1570987E+01  0.5304734E-04 -0.2070883E+01
  0.4400000E+00  0.1175230E+04 -0.1570598E+01  0.2420809E-03  0.3126819E+01  0.1968807E+05 -0.2119923E-02  0.2982318E-02 -0.3141403E+01  0.1469019E+03  0.1570989E+01  0.1167112E-03  0.4304102E+00
  0.4500000E+00  0.1202926E+04 -0.1570591E+01  0.7897086E-03 -0.3137517E+01  0.1966927E+05 -0.2222114E-02  0.7665178E-04 -0.3139260E+01  0.1504018E+03  0.1571004E+01  0.3797013E-04  0.1020369E-01
  0.4600000E+00  0.1230686E+04 -0.1570583E+01  0.2339688E-03  0.3128345E+01  0.1965008E+05 -0.2327092E-02  0.1755775E-02 -0.3140523E+01  0.1539027E+03  0.1571013E+01  0.1065484E-03  0.2458727E+01
  0.4700000E+00  0.1258455E+04 -0.1570572E+01  0.2464189E-03  0.3131192E+01  0.1963039E+05 -0.2434948E-02  0.2333465E-02  0.1455975E-02  0.1573923E+03  0.1571021E+01  0.1371579E-03 -0.1972678E+00
  0.4800000E+00  0.1286243E+04 -0.1570562E+01  0.5362034E-03  0.3141370E+01  0.1961028E+05 -0.2545899E-02  0.1384027E-03  0.3229969E-02  0.1608900E+03  0.1571032E+01  0.1097181E-03  0.4282908E+00
  0.4900000E+00  0.1314190E+04 -0.1570550E+01  0.2287067E-03  0.3135859E+01  0.1958975E+05 -0.2659281E-02  0.3288212E-02 -0.3140369E+01  0.1644373E+03  0.1571048E+01  0.7410759E-04 -0.8276385E+00
  0.5000000E+00  0.1342145E+04 -0.1570538E+01  0.1495364E-02  0.3139560E+01  0.1956881E+05 -0.2775335E-02  0.2083957E-02 -0.3141178E+01  0.1679904E+03  0.1571057E+01  0.6855562E-04 -0.5895700E+00
  0.5100000E+00  0.1370039E+04 -0.1570524E+01  0.3165656E-03 -0.3135756E+01  0.1954739E+05 -0.2894376E-02  0.3861376E-02 -0.3139548E+01  0.1715361E+03  0.1571065E+01  0.3373299E-04  0.1733186E+01
  0.5200000E+00  0.1398015E+04 -0.1570514E+01  0.6114852E-03 -0.3139643E+01  0.1952582E+05 -0.3016084E-02  0.1068652E-02 -0.3141174E+01  0.1750531E+03  0.1571078E+01  0.6882648E-04  0.1361426E+01
  0.5300000E+00  0.1426130E+04 -0.1570502E+01  0.1967196E-02 -0.2242150E-02  0.1950400E+05 -0.3140592E-02  0.1378001E-02 -0.1384142E-02  0.1785532E+03  0.1571089E+01  0.8063872E-04  0.9960167E+00
  0.5400000E+00  0.1454320E+04 -0.1570490E+01  0.8344014E-04 -0.3572461E-01  0.1948175E+05 -0.3268185E-02  0.3558996E-02  0.3140579E+01  0.1820523E+03  0.1571107E+01  0.3602663E-04 -0.6871413E-01
  0.5500000E+00  0.1482564E+04 -0.1570477E+01  0.9184486E-03  0.1168148E-02  0.1945907E+05 -0.3398873E-02  0.1433136E-02 -0.3140199E+01  0.1855856E+03  0.1571116E+01  0.3365088E-04 -0.1386428E+01
  0.5600000E+00  0.1510851E+04 -0.1570463E+01  0.2532617E-03 -0.3530227E-02  0.1943610E+05 -0.3532666E-02  0.4159347E-02  0.2765749E-02  0.1891879E+03  0.1571135E+01  0.1894582E-03 -0.4515475E+00
  0.5700000E+00  0.1539291E+04 -0.1570451E+01  0.2215646E-03 -0.1129896E-01  0.1941266E+05 -0.3669703E-02  0.4446032E-02 -0.9518445E-03  0.1928424E+03  0.1571145E+01  0.8977469E-04 -0.2086588E+00
  0.5800000E+00  0.1567633E+04 -0.1570433E+01  0.7795753E-03  0.3137617E+01  0.1938879E+05 -0.3809965E-02  0.1622976E-02 -0.1267030E-02  0.1964780E+03  0.1571160E+01  0.1001683E-04  0.2257156E+01
  0.5900000E+00  0.1595929E+04 -0.1570418E+01  0.3532770E-03 -0.3140411E+01  0.1936454E+05 -0.3953602E-02  0.4266501E-03 -0.3141522E+01  0.2000843E+03  0.1571169E+01  0.2110914E-03 -0.6350865E+00
  0.6000000E+00  0.1624289E+04 -0.1570405E+01  0.4637414E-04  0.5143465E-01  0.1933987E+05 -0.4100665E-02  0.5234487E-03  0.1480298E-02  0.2036961E+03  0.1571190E+01  0.9335331E-04  0.2314195E+01
  0.6100000E+00  0.1652746E+04 -0.1570389E+01  0.1917428E-02  0.3139074E+01  0.1931474E+05 -0.4251237E-02  0.7807171E-03 -0.6298574E-02  0.2073222E+03  0.1571204E+01  0.1898298E-03  0.2835729E+01
  0.6200000E+00  0.1681168E+04 -0.1570371E+01  0.1616360E-02 -0.1069400E-02  0.1928921E+05 -0.4405444E-02  0.1500520E-02 -0.6554285E-02  0.2109166E+03  0.1571222E+01  0.7056050E-04  0.2815702E+01
  0.6300000E+00  0.1709644E+04 -0.1570354E+01  0.1015728E-02  0.3138248E+01  0.1926315E+05 -0.4563832E-02  0.2080560E-02  0.3141106E+01  0.2145365E+03  0.1571233E+01  0.2158556E-03  0.2740472E+01
  0.6400000E+00  0.1738419E+04 -0.1570338E+01  0.7369633E-03  0.3136012E+01  0.1923685E+05 -0.4724924E-02  0.3196622E-02  0.3887729E-02  0.2182257E+03  0.1571254E+01  0.4343481E-03  0.2903453E+01
  0.6500000E+00  0.1767305E+04 -0.1570321E+01  0.2063091E-03 -0.1300129E-01  0.1921001E+05 -0.4888647E-02  0.3799416E-04  0.2847131E+01  0.2219312E+03  0.1571270E+01  0.1383493E-03 -0.3237942E+00
  0.6600000E+00  0.1796319E+04 -0.1570303E+01  0.2216817E-02  0.3140463E+01  0.1918278E+05 -0.5056148E-02  0.3888369E-02 -0.3141516E+01  0.2256591E+03  0.1571289E+01  0.1520331E-03  0.1863098E+01
  0.6700000E+00  0.1825521E+04 -0.1570285E+01  0.1504507E-03  0.3111479E+01  0.1915498E+05 -0.5227514E-02  0.1006729E-02  0.3700398E-02  0.2294110E+03  0.1571305E+01  0.2890404E-03  0.2912869E+01
  0.6799999E+00  0.1854981E+04 -0.1570265E+01  0.1611650E-02 -0.2958688E-03  0.1912727E+05 -0.5401506E-02  0.4325991E-02 -0.3140022E+01  0.2331560E+03  0.1571324E+01  0.3698399E-04  0.2183834E+01
  0.6899999E+00  0.1884540E+04 -0.1570248E+01  0.2810446E-03  0.3133746E+01  0.1909928E+05 -0.5578640E-02  0.2435331E-02  0.3139671E+01  0.2368904E+03  0.1571343E+01  0.3053160E-04 -0.1969793E+01
  0.7000000E+00  0.1914215E+04 -0.1570229E+01  0.6450599E-03  0.7577015E-02  0.1907129E+05 -0.5759628E-02  0.4131440E-02  0.1226303E-02  0.2406331E+03  0.1571369E+01  0.2043899E-03 -0.2535015E+00
  0.7099999E+00  0.1943997E+04 -0.1570207E+01  0.6632947E-03 -0.6559934E-02  0.1904252E+05 -0.5944565E-02  0.7678357E-04  0.1824331E-01  0.2443833E+03  0.1571386E+01  0.1222112E-03 -0.2758188E+01
  0.7200000E+00  0.1973910E+04 -0.1570188E+01  0.9406127E-03 -0.3131136E+01  0.1901342E+05 -0.6133466E-02  0.1371199E-02  0.3132790E+01  0.2481920E+03  0.1571403E+01  0.8206336E-04  0.3120891E+01
  0.7300000E+00  0.2003940E+04 -0.1570167E+01  0.2227884E-03 -0.3110821E+01  0.1898390E+05 -0.6326401E-02  0.4231149E-03  0.3127646E+01  0.2520549E+03  0.1571424E+01  0.6120322E-04  0.1490364E+01
  0.7400000E+00  0.2034141E+04 -0.1570143E+01  0.8436454E-03 -0.1766282E-02  0.1895363E+05 -0.6523467E-02  0.2966193E-03 -0.3135280E-01  0.2559781E+03  0.1571449E+01  0.4483461E-04 -0.2213765E+01
  0.7500000E+00  0.2064535E+04 -0.1570122E+01  0.2900257E-03  0.4893210E-01  0.1892335E+05 -0.6724808E-02  0.1867062E-02  0.3138991E+01  0.2599356E+03  0.1571471E+01  0.7409535E-04  0.2350507E+01
  0.7600000E+00  0.2094830E+04 -0.1570098E+01  0.8842965E-03 -0.3139503E+01  0.1889269E+05 -0.6930519E-02  0.2555612E-02  0.1714245E-02  0.2638577E+03  0.1571496E+01  0.1706650E-03 -0.1285445E+01
  0.7700000E+00  0.2125051E+04 -0.1570074E+01  0.9103136E-03 -0.3133277E+01  0.1886161E+05 -0.7140780E-02  0.2407324E-02 -0.3138399E+01  0.2677564E+03  0.1571520E+01  0.1537170E-03 -0.1091628E+01
  0.7800000E+00  0.2155286E+04 -0.1570047E+01  0.2003312E-02  0.4462958E-03  0.1883011E+05 -0.7355614E-02  0.3551517E-02 -0.3137220E+01  0.2716541E+03  0.1571543E+01  0.6600669E-04  0.9311780E+00
  0.7900000E+00  0.2185613E+04 -0.1570025E+01  0.2085092E-02 -0.3140049E+01  0.1879823E+05 -0.7575277E-02  0.4530612E-03 -0.3124554E+01  0.2755658E+03  0.1571567E+01  0.1489725E-03 -0.1042420E+01
  0.8000000E+00  0.2216115E+04 -0.1569997E+01  0.6104771E-03  0.2831827E-01  0.1876587E+05 -0.7799936E-02  0.5863935E-03 -0.3138390E+01  0.2794917E+03  0.1571595E+01  0.2150494E-03  0.2624372E+01
  0.8099999E+00  0.2246646E+04 -0.1569972E+01  0.7742108E-04  0.1297025E+00  0.1873315E+05 -0.8029805E-02  0.2548464E-02 -0.2467485E-02  0.2834020E+03  0.1571622E+01  0.6481410E-04 -0.2713223E-01
  0.8200001E+00  0.2277315E+04 -0.1569944E+01  0.1327479E-02 -0.3130367E+01  0.1869994E+05 -0.8266333E-02  0.2518389E-02  0.8544165E-02  0.2873637E+03  0.1571646E+01  0.2250611E-03  0.2848614E+01
  0.8299999E+00  0.2308129E+04 -0.1569917E+01  0.1640204E-02 -0.2216728E-02  0.1866634E+05 -0.8505614E-02  0.1849179E-02 -0.3139417E+01  0.2913651E+03  0.1571681E+01  0.2426521E-03  0.2869265E+01
  0.8400000E+00  0.2339015E+04 -0.1569888E+01  0.8777484E-03 -0.3136703E+01  0.1863238E+05 -0.8747141E-02  0.3446251E-03  0.3096609E+01  0.2953875E+03  0.1571707E+01  0.6114011E-04  0.2572740E+00
  0.8500000E+00  0.2370025E+04 -0.1569858E+01  0.2816137E-03 -0.1714481E-01  0.1859799E+05 -0.8993900E-02  0.1823903E-02 -0.3140776E+01  0.2994334E+03  0.1571732E+01  0.1488808E-03 -0.8502716E+00
  0.8600000E+00  0.2401154E+04 -0.1569829E+01  0.1075106E-02  0.1197548E-01  0.1856314E+05 -0.9246174E-02  0.5469419E-03  0.3135653E+01  0.3034975E+03  0.1571765E+01  0.8915143E-04 -0.2371796E+01
  0.8700000E+00  0.2432433E+04 -0.1569797E+01  0.1492204E-02 -0.3132526E+01  0.1852776E+05 -0.9504369E-02  0.5240020E-02  0.4663722E-02  0.3075878E+03  0.1571794E+01  0.1912666E-03  0.2968554E+01
  0.8800000E+00  0.2463734E+04 -0.1569765E+01  0.1274352E-02 -0.2806354E-02  0.1849256E+05 -0.9763790E-02  0.2175570E-02  0.8630257E-03  0.3116392E+03  0.1571829E+01  0.3806346E-03 -0.3068634E+01
  0.8900000E+00  0.2495237E+04 -0.1569733E+01  0.2404717E-03  0.1487244E-01  0.1845731E+05 -0.1002660E-01  0.1059149E-02  0.3128311E+01  0.3156910E+03  0.1571859E+01  0.1348123E-03 -0.1509301E+01
  0.9000000E+00  0.2526854E+04 -0.1569701E+01  0.1140613E-02 -0.3136001E+01  0.1842170E+05 -0.1029492E-01  0.4019528E-02  0.3137812E+01  0.3197523E+03  0.1571892E+01  0.5082304E-03  0.9165523E+00
  0.9100000E+00  0.2558625E+04 -0.1569665E+01  0.1564422E-02 -0.3134506E+01  0.1838565E+05 -0.1056865E-01  0.2760887E-02  0.3141496E+01  0.3238303E+03  0.1571929E+01  0.2931099E-03 -0.1184663E+01
  0.9200000E+00  0.2590554E+04 -0.1569631E+01  0.1110802E-02 -0.4078105E-02  0.1834938E+05 -0.1084793E-01  0.2600453E-02  0.4057005E-02  0.3279260E+03  0.1571964E+01  0.4762297E-04 -0.2003411E+00
  0.9299999E+00  0.2622712E+04 -0.1569594E+01  0.5544678E-03  0.3132025E+01  0.1831251E+05 -0.1113291E-01  0.4576684E-02 -0.3140993E+01  0.3321017E+03  0.1572002E+01  0.7290262E-04  0.6178259E+00
  0.9399999E+00  0.2654994E+04 -0.1569557E+01  0.1634360E-02  0.3141520E+01  0.1827536E+05 -0.1142365E-01  0.4470506E-03 -0.8399802E-02  0.3363270E+03  0.1572036E+01  0.8558357E-04 -0.3434455E+00
  0.9500000E+00  0.2687485E+04 -0.1569518E+01  0.8237893E-03  0.3130233E+01  0.1823790E+05 -0.1172030E-01  0.2884168E-02  0.3137975E+01  0.3406170E+03  0.1572074E+01  0.8020038E-04 -0.2447235E+01
  0.9599999E+00  0.2720169E+04 -0.1569480E+01  0.2549992E-03  0.3097401E+01  0.1820002E+05 -0.1202334E-01  0.1435070E-02 -0.3135341E+01  0.3449483E+03  0.1572115E+01  0.3381597E-03  0.2662257E+01
  0.9700000E+00  0.2753301E+04 -0.1569438E+01  0.2858979E-03  0.3108855E+01  0.1816190E+05 -0.1233194E-01  0.3258470E-02  0.1298748E-02  0.3493383E+03  0.1572157E+01  0.1912149E-03 -0.8496938E+00
  0.9800000E+00  0.2786225E+04 -0.1569398E+01  0.4843962E-04  0.3013270E+01  0.1812303E+05 -0.1264757E-01  0.2152449E-02 -0.2270709E-02  0.3536823E+03  0.1572193E+01  0.1164615E-03  0.2765030E+01
  0.9900000E+00  0.2819292E+04 -0.1569353E+01  0.3601462E-03 -0.3132490E+01  0.1808402E+05 -0.1296989E-01  0.4431189E-03 -0.3116706E+01  0.3580295E+03  0.1572239E+01  0.3877164E-04 -0.2459649E+01
  0.1000000E+01  0.2852613E+04 -0.1569310E+01  0.4007859E-03 -0.4610319E-02  0.1804462E+05 -0.1329911E-01  0.2439314E-02  0.6646374E-02  0.3624099E+03  0.1572282E+01  0.1661619E-03 -0.2383338E+01
  0.1010000E+01  0.2886229E+04 -0.1569264E+01  0.5723239E-03  0.3141176E+01  0.1800464E+05 -0.1363556E-01  0.9188144E-03  0.2020877E-01  0.3668294E+03  0.1572329E+01  0.1969360E-03 -0.2579111E+01
  0.1020000E+01  0.2920219E+04 -0.1569219E+01  0.7249221E-04 -0.1891222E-01  0.1796453E+05 -0.1397984E-01  0.1390695E-02 -0.3141142E+01  0.3712981E+03  0.1572377E+01  0.2214893E-03  0.2340114E+01
  0.1030000E+01  0.2954184E+04 -0.1569170E+01  0.4023869E-03  0.3103366E+01  0.1792393E+05 -0.1433182E-01  0.1250628E-02 -0.3127604E+01  0.3757402E+03  0.1572422E+01  0.2734308E-03  0.1945271E+01
  0.1040000E+01  0.2988302E+04 -0.1569121E+01  0.1725442E-02 -0.2694480E-02  0.1788294E+05 -0.1469247E-01  0.3509530E-02  0.3139402E+01  0.3802026E+03  0.1572472E+01  0.4478479E-04 -0.1157167E+01
  0.1050000E+01  0.3022657E+04 -0.1569071E+01  0.5987214E-03  0.3110428E+01  0.1784145E+05 -0.1506460E-01  0.3585288E-03 -0.3080792E+01  0.3847368E+03  0.1572520E+01  0.7222558E-04 -0.2198864E+01
  0.1060000E+01  0.3057266E+04 -0.1569020E+01  0.6905085E-03  0.3129766E+01  0.1779964E+05 -0.1544141E-01  0.1722819E-02 -0.3138791E+01  0.3893275E+03  0.1572574E+01  0.1554967E-03 -0.2638851E+01
  0.1070000E+01  0.3092028E+04 -0.1568966E+01  0.1594136E-03  0.3098206E+01  0.1775763E+05 -0.1581761E-01  0.2724187E-02 -0.3138191E+01  0.3939511E+03  0.1572626E+01  0.1328909E-03  0.1644421E+01
  0.1080000E+01  0.3126920E+04 -0.1568913E+01  0.1304624E-03 -0.2695873E-01  0.1771507E+05 -0.1620194E-01  0.2089105E-02  0.1749052E-01  0.3986001E+03  0.1572682E+01  0.3961922E-04  0.6428992E+00
  0.1090000E+01  0.3161983E+04 -0.1568855E+01  0.4873612E-03 -0.1174114E-01  0.1767204E+05 -0.1659494E-01  0.1011383E-02  0.3136760E+01  0.4032802E+03  0.1572739E+01  0.4163888E-04 -0.2285789E+01
  0.1100000E+01  0.3197261E+04 -0.1568798E+01  0.3148359E-03  0.6175748E-01  0.1762854E+05 -0.1699746E-01  0.4626646E-03 -0.3059371E+01  0.4079934E+03  0.1572796E+01  0.1109508E-03  0.3041667E+00
  0.1110000E+01  0.3232701E+04 -0.1568739E+01  0.8991174E-03 -0.9546249E-02  0.1758451E+05 -0.1741044E-01  0.3689856E-03 -0.1278814E+00  0.4127349E+03  0.1572854E+01  0.2742981E-04  0.1351362E+00
  0.1120000E+01  0.3268364E+04 -0.1568676E+01  0.1369170E-02 -0.1580328E-01  0.1754099E+05 -0.1781966E-01  0.3424469E-02 -0.3135527E+01  0.4174597E+03  0.1572915E+01  0.9448914E-04  0.1025671E+01
  0.1130000E+01  0.3304592E+04 -0.1568616E+01  0.1879024E-02  0.7105573E-02  0.1749748E+05 -0.1822962E-01  0.5918245E-03  0.7666765E-01  0.4222261E+03  0.1572979E+01  0.5952887E-04  0.2644803E+01
  0.1140000E+01  0.3340599E+04 -0.1568552E+01  0.5149888E-03  0.3137311E+01  0.1745372E+05 -0.1864855E-01  0.1680403E-02 -0.3123732E+01  0.4269595E+03  0.1573041E+01  0.1429522E-03 -0.1970815E+01
  0.1150000E+01  0.3376717E+04 -0.1568487E+01  0.2858146E-04 -0.2886498E+01  0.1740963E+05 -0.1907619E-01  0.1692450E-02  0.1354169E-01  0.4316990E+03  0.1573106E+01  0.1198568E-03 -0.1488150E+01
  0.1160000E+01  0.3413014E+04 -0.1568420E+01  0.1168519E-03 -0.3120167E+01  0.1736524E+05 -0.1951242E-01  0.2367330E-02  0.7798966E-02  0.4364567E+03  0.1573173E+01  0.8435523E-04  0.6050531E+00
  0.1170000E+01  0.3449542E+04 -0.1568351E+01  0.1282871E-04  0.2231025E+01  0.1732034E+05 -0.1995734E-01  0.1278640E-02 -0.3140265E+01  0.4412431E+03  0.1573244E+01  0.8211213E-05  0.1820172E+01
  0.1180000E+01  0.3486490E+04 -0.1568278E+01  0.1498245E-02 -0.3136023E+01  0.1727523E+05 -0.2041094E-01  0.1039615E-02  0.3101750E+01  0.4461589E+03  0.1573313E+01  0.1627232E-03 -0.2796330E+00
  0.1190000E+01  0.3523694E+04 -0.1568207E+01  0.1067710E-02  0.3130036E+01  0.1722983E+05 -0.2087357E-01  0.2746952E-02  0.9786166E-02  0.4511371E+03  0.1573386E+01  0.6375268E-04  0.5603833E+00
  0.1200000E+01  0.3561168E+04 -0.1568131E+01  0.1446965E-02 -0.1647717E-02  0.1718412E+05 -0.2134533E-01  0.1380921E-02  0.3123010E+01  0.4561894E+03  0.1573460E+01  0.1192122E-03  0.6841114E+00
  0.1210000E+01  0.3598917E+04 -0.1568054E+01  0.1278171E-02  0.3683998E-02  0.1713802E+05 -0.2182674E-01  0.2855125E-02 -0.6643956E-02  0.4613060E+03  0.1573539E+01  0.2803431E-03 -0.3050788E+01
  0.1220000E+01  0.3636960E+04 -0.1567974E+01  0.5385236E-03  0.2545951E-01  0.1709158E+05 -0.2231792E-01  0.3268292E-02  0.3128311E+01  0.4664719E+03  0.1573619E+01  0.1545055E-03  0.6748313E+00
  0.1230000E+01  0.3674886E+04 -0.1567893E+01  0.1552841E-02  0.3136449E+01  0.1704479E+05 -0.2281947E-01  0.1311807E-02 -0.3135106E+01  0.4716103E+03  0.1573702E+01  0.1284164E-03  0.2822925E+01
  0.1240000E+01  0.3713000E+04 -0.1567808E+01  0.7450577E-05 -0.6435013E+00  0.1699778E+05 -0.2333157E-01  0.1074177E-02  0.3279957E-01  0.4767683E+03  0.1573787E+01  0.1526691E-03  0.1527838E+01
  0.1250000E+01  0.3751250E+04 -0.1567722E+01  0.8867283E-04  0.3039918E+01  0.1695035E+05 -0.2385474E-01  0.2611413E-02 -0.3138300E+01  0.4819250E+03  0.1573873E+01  0.3740238E-03  0.1480475E+01
  0.1260000E+01  0.3789713E+04 -0.1567631E+01  0.1557697E-03  0.3253062E-01  0.1690259E+05 -0.2438929E-01  0.3926788E-02 -0.4223570E-02  0.4871117E+03  0.1573964E+01  0.9203585E-04 -0.1025038E+00
  0.1270000E+01  0.3828486E+04 -0.1567538E+01  0.2311995E-02  0.6548324E-02  0.1685457E+05 -0.2493576E-01  0.1657160E-02 -0.3105082E+01  0.4923463E+03  0.1574057E+01  0.7150687E-04 -0.2643881E+00
  0.1280000E+01  0.3867433E+04 -0.1567442E+01  0.1055414E-03  0.2842346E+01  0.1680610E+05 -0.2549487E-01  0.2274125E-02  0.3132721E+01  0.4976115E+03  0.1574152E+01  0.1233961E-03  0.4059383E+00
  0.1290000E+01  0.3906569E+04 -0.1567343E+01  0.3371257E-03 -0.3138233E+01  0.1675725E+05 -0.2606697E-01  0.5880289E-03  0.1737199E-01  0.5028851E+03  0.1574250E+01  0.1161181E-03  0.7189265E+00
  0.1300000E+01  0.3945903E+04 -0.1567244E+01  0.1916941E-03 -0.3070640E+01  0.1670821E+05 -0.2665258E-01  0.2172010E-02  0.3137717E+01  0.5081668E+03  0.1574350E+01  0.8053027E-04 -0.3002364E+01
  0.1310000E+01  0.3985420E+04 -0.1567140E+01  0.3653064E-04 -0.2936197E+01  0.1665842E+05 -0.2725535E-01  0.3925838E-03  0.3066701E+01  0.5134763E+03  0.1574452E+01  0.2108528E-03 -0.2402285E+01
  0.1320000E+01  0.4025357E+04 -0.1567035E+01  0.7545023E-03 -0.3109672E+01  0.1660865E+05 -0.2787891E-01  0.1736593E-03  0.3109303E+01  0.5189205E+03  0.1574558E+01  0.1182261E-03  0.2192978E+00
  0.1330000E+01  0.4065604E+04 -0.1566926E+01  0.2077080E-02  0.2993479E-01  0.1655834E+05 -0.2850189E-01  0.3687629E-02 -0.2551822E-01  0.5244202E+03  0.1574668E+01  0.1302912E-03  0.1369991E+01
  0.1340000E+01  0.4106047E+04 -0.1566813E+01  0.8733610E-03  0.3419863E-01  0.1650782E+05 -0.2912610E-01  0.2373539E-02  0.3115673E+01  0.5299528E+03  0.1574780E+01  0.1809738E-03  0.5725644E+00
  0.1350000E+01  0.4146767E+04 -0.1566698E+01  0.1010906E-02  0.3119363E+01  0.1645669E+05 -0.2976479E-01  0.5245218E-03 -0.3139715E+01  0.5355349E+03  0.1574898E+01  0.1228057E-03  0.2781232E+01
  0.1360000E+01  0.4187720E+04 -0.1566578E+01  0.5915330E-04  0.2066445E+01  0.1640536E+05 -0.3041907E-01  0.3877353E-02 -0.3131678E+01  0.5411559E+03  0.1575017E+01  0.2413817E-03  0.1790349E+01
  0.1370000E+01  0.4228889E+04 -0.1566455E+01  0.5836036E-03  0.3115853E+01  0.1635340E+05 -0.3109019E-01  0.4187146E-02 -0.4285683E-02  0.5468132E+03  0.1575140E+01  0.3836871E-03  0.1105550E+01
  0.1380000E+01  0.4270406E+04 -0.1566327E+01  0.1704216E-02 -0.9443199E-03  0.1630104E+05 -0.3178098E-01  0.2814492E-03 -0.2872496E+01  0.5525293E+03  0.1575268E+01  0.9694166E-04  0.1884575E+01
  0.1390000E+01  0.4312564E+04 -0.1566198E+01  0.1255037E-02 -0.3122024E+01  0.1624850E+05 -0.3248642E-01  0.6188761E-03  0.9520280E-01  0.5583315E+03  0.1575397E+01  0.1216894E-03 -0.5939122E+00
  0.1400000E+01  0.4354896E+04 -0.1566067E+01  0.1253631E-02 -0.3135221E+01  0.1619753E+05 -0.3314772E-01  0.2350356E-02  0.4713776E-02  0.5640481E+03  0.1575530E+01  0.8628287E-04 -0.2292161E+01
  0.1410000E+01  0.4397505E+04 -0.1565930E+01  0.4737925E-03 -0.5701982E-01  0.1614630E+05 -0.3382579E-01  0.2372431E-02 -0.3129759E+01  0.5697951E+03  0.1575666E+01  0.2070233E-03  0.2779452E+01
  0.1420000E+01  0.4440500E+04 -0.1565792E+01  0.1524510E-03 -0.2784103E+01  0.1609476E+05 -0.3451845E-01  0.7401758E-03  0.3101278E+01  0.5755936E+03  0.1575803E+01  0.9325182E-04  0.2107544E+01
  0.1430000E+01  0.4483925E+04 -0.1565649E+01  0.3195016E-03  0.3031677E+01  0.1604303E+05 -0.3522579E-01  0.9696365E-03 -0.3068192E+01  0.5814407E+03  0.1575946E+01  0.1522226E-03 -0.3252175E+00
  0.1440000E+01  0.4527705E+04 -0.1565502E+01  0.6577983E-03  0.4668231E-01  0.1599093E+05 -0.3594739E-01  0.3501136E-02  0.3130973E+01  0.5873228E+03  0.1576092E+01  0.3636733E-03  0.1807706E+01
  0.1450000E+01  0.4572238E+04 -0.1565352E+01  0.1800780E-02 -0.3139491E+01  0.1593820E+05 -0.3668315E-01  0.1656758E-02 -0.2912723E-01  0.5932961E+03  0.1576243E+01  0.1890850E-03  0.1083286E+01
  0.1460000E+01  0.4617221E+04 -0.1565196E+01  0.7735779E-04  0.2975557E+01  0.1588596E+05 -0.3743272E-01  0.6207084E-02  0.1838057E-01  0.5994064E+03  0.1576401E+01  0.4964916E-03  0.1508810E+01
  0.1470000E+01  0.4662496E+04 -0.1565037E+01  0.1018221E-03  0.3070702E+01  0.1583301E+05 -0.3819633E-01  0.2330705E-02 -0.3114149E+01  0.6056287E+03  0.1576559E+01  0.3819778E-03 -0.1453181E+01
  0.1480000E+01  0.4708130E+04 -0.1564872E+01  0.1469328E-03  0.1916277E+00  0.1577867E+05 -0.3897404E-01  0.1616243E-02 -0.3096096E+01  0.6119272E+03  0.1576725E+01  0.5000621E-03  0.1986758E+01
  0.1490000E+01  0.4754310E+04 -0.1564702E+01  0.5627910E-04  0.8374695E+00  0.1572653E+05 -0.3976719E-01  0.1019339E-02  0.3115833E+01  0.6183578E+03  0.1576895E+01  0.6547873E-03 -0.1569522E+01
  0.1500000E+01  0.4800792E+04 -0.1564528E+01  0.3300515E-03  0.3119558E+01  0.1567216E+05 -0.4057596E-01  0.2096406E-02  0.3107995E+01  0.6248406E+03  0.1577069E+01  0.1937958E-03  0.6532202E+00
  0.1510000E+01  0.4847824E+04 -0.1564347E+01  0.4157780E-03  0.4667963E-01  0.1561753E+05 -0.4140053E-01  0.9481037E-04  0.2972620E+01  0.6314158E+03  0.1577250E+01  0.1141607E-03  0.7480090E+00
  0.1520000E+01  0.4894646E+04 -0.1564162E+01  0.3512448E-03  0.4082309E-01  0.1556509E+05 -0.4224179E-01  0.3076099E-02 -0.3137795E+01  0.6379344E+03  0.1577436E+01  0.2696609E-03 -0.2285177E+01
  0.1530000E+01  0.4941707E+04 -0.1563970E+01  0.1067692E-03  0.2727648E+01  0.1550987E+05 -0.4310051E-01  0.2811432E-02  0.5512211E-03  0.6444754E+03  0.1577627E+01  0.1508750E-03  0.2572273E+01
  0.1540000E+01  0.4989088E+04 -0.1563773E+01  0.9007550E-03 -0.4632049E-02  0.1545528E+05 -0.4397716E-01  0.3738298E-02  0.1409526E-01  0.6510468E+03  0.1577825E+01  0.3683525E-03  0.1852841E+01
  0.1550000E+01  0.5036830E+04 -0.1563570E+01  0.8463896E-03  0.2922521E-02  0.1540109E+05 -0.4487211E-01  0.1731538E-03  0.2798777E+01  0.6576712E+03  0.1578029E+01  0.3724798E-03  0.2046879E+01
  0.1560000E+01  0.5084965E+04 -0.1563360E+01  0.1149411E-02 -0.3121445E+01  0.1534553E+05 -0.4578696E-01  0.1400034E-02 -0.7556908E-02  0.6643536E+03  0.1578238E+01  0.2345608E-03 -0.2539828E+01
  0.1570000E+01  0.5133562E+04 -0.1563144E+01  0.1150104E-02  0.3113629E+01  0.1529079E+05 -0.4672199E-01  0.4860816E-03 -0.2788891E+00  0.6711069E+03  0.1578455E+01  0.4313955E-03 -0.1185223E+01
  0.1580000E+01  0.5182637E+04 -0.1562921E+01  0.3434767E-03 -0.2993895E-01  0.1523549E+05 -0.4767834E-01  0.1598060E-02 -0.3112963E+01  0.6779089E+03  0.1578678E+01  0.4481586E-03  0.2058000E+01
  0.1590000E+01  0.5231711E+04 -0.1562692E+01  0.3381559E-04 -0.2908584E+01  0.1517982E+05 -0.4865697E-01  0.3828774E-02  0.3130204E+01  0.6846784E+03  0.1578906E+01  0.3764969E-03 -0.1491557E+01
  0.1600000E+01  0.5281011E+04 -0.1562457E+01  0.5536084E-03  0.3140328E+01  0.1512335E+05 -0.4966081E-01  0.6737392E-03 -0.3022943E+01  0.6914805E+03  0.1579141E+01  0.3601540E-03  0.5369675E+00
  0.1610000E+01  0.5330620E+04 -0.1562215E+01  0.2408168E-03  0.1082879E-01  0.1506806E+05 -0.5069645E-01  0.3358049E-02 -0.3131777E+01  0.6983973E+03  0.1579382E+01  0.4693519E-03  0.1462897E+01
  0.1620000E+01  0.5380653E+04 -0.1561966E+01  0.6776042E-03  0.3066180E+01  0.1501107E+05 -0.5176035E-01  0.3161309E-02  0.3126584E+01  0.7054180E+03  0.1579631E+01  0.4867250E-03 -0.7048557E+00
  0.1630000E+01  0.5431058E+04 -0.1561709E+01  0.3212354E-03  0.1045613E+00  0.1495430E+05 -0.5280478E-01  0.1306847E-02  0.3106831E+01  0.7125012E+03  0.1579889E+01  0.2723932E-03 -0.1947239E+01
  0.1640000E+01  0.5482046E+04 -0.1561445E+01  0.1051532E-02 -0.3330778E-01  0.1489733E+05 -0.5387214E-01  0.6902104E-03 -0.3115942E+01  0.7196846E+03  0.1580153E+01  0.5618965E-03  0.1293138E+01
  0.1650000E+01  0.5533369E+04 -0.1561171E+01  0.6794356E-03  0.3106451E+01  0.1483978E+05 -0.5496673E-01  0.7403111E-03 -0.3115101E+01  0.7269208E+03  0.1580428E+01  0.5518764E-03 -0.5163137E+00