 VARIABLES="Time (s)"
"AddedMass    1" "IRF    1"
"AddedMass    2" "IRF    2"
"AddedMass    3" "IRF    3"
"AddedMass    4" "IRF    4"
"AddedMass    5" "IRF    5"
"AddedMass    6" "IRF    6"
Zone t="DoF    1",I=   100,F=POINT
  0.0000000E+00  0.9331774E+03  0.4218767E+03 -0.1914091E-07 -0.7036852E-07  0.6119059E-04  0.1633563E-03 -0.9070479E-08  0.2459741E-07 -0.1601706E+03 -0.5929084E+02  0.1427265E-05  0.2184817E-06
  0.1000000E+00  0.9331774E+03  0.4069637E+03 -0.1914091E-07 -0.6784051E-07  0.6119059E-04  0.1600439E-03 -0.9070479E-08  0.2372074E-07 -0.1601706E+03 -0.5718570E+02  0.1427265E-05  0.1912678E-06
  0.2000000E+00  0.9331774E+03  0.3633271E+03 -0.1914091E-07 -0.6044537E-07  0.6119059E-04  0.1502750E-03 -0.9070479E-08  0.2115482E-07 -0.1601706E+03 -0.5102633E+02  0.1427265E-05  0.1127231E-06
  0.3000000E+00  0.9331774E+03  0.2941912E+03 -0.1914091E-07 -0.4873536E-07  0.6119059E-04  0.1345433E-03 -0.9070479E-08  0.1708702E-07 -0.1601706E+03 -0.4126920E+02  0.1427265E-05 -0.8150959E-08
  0.4000000E+00  0.9331774E+03  0.2046558E+03 -0.1914091E-07 -0.3358363E-07  0.6119059E-04  0.1136397E-03 -0.9070479E-08  0.1181413E-07 -0.1601706E+03 -0.2863624E+02  0.1427265E-05 -0.1572898E-06
  0.5000000E+00  0.9331774E+03  0.1013093E+03 -0.1914091E-07 -0.1611743E-07  0.6119059E-04  0.8860519E-04 -0.9070479E-08  0.5720222E-08 -0.1601706E+03 -0.1405982E+02  0.1427265E-05 -0.3168994E-06
  0.6000000E+00  0.9331774E+03 -0.8272367E+01 -0.1914091E-07  0.2368161E-08  0.6119059E-04  0.6067033E-04 -0.9070479E-08 -0.7519330E-09 -0.1601706E+03  0.1388109E+01  0.1427265E-05 -0.4671476E-06
  0.7000000E+00  0.9331774E+03 -0.1160982E+03 -0.1914091E-07  0.2050910E-07  0.6119059E-04  0.3118430E-04 -0.9070479E-08 -0.7133679E-08 -0.1601706E+03  0.1657736E+02  0.1427265E-05 -0.5880826E-06
  0.8000000E+00  0.9331774E+03 -0.2143653E+03 -0.1914091E-07  0.3697621E-07  0.6119059E-04  0.1538297E-05 -0.9070479E-08 -0.1296518E-07 -0.1601706E+03  0.3040496E+02  0.1427265E-05 -0.6616110E-06
  0.9000000E+00  0.9331774E+03 -0.2960433E+03 -0.1914091E-07  0.5057571E-07  0.6119059E-04 -0.2691189E-04 -0.9070479E-08 -0.1782929E-07 -0.1601706E+03  0.4187795E+02  0.1427265E-05 -0.6733505E-06
  0.1000000E+01  0.9331774E+03 -0.3553972E+03 -0.1914091E-07  0.6033912E-07  0.6119059E-04 -0.5291904E-04 -0.9070479E-08 -0.2138212E-07 -0.1601706E+03  0.5018745E+02  0.1427265E-05 -0.6142030E-06
  0.1100000E+01  0.9331774E+03 -0.3884074E+03 -0.1914091E-07  0.6559508E-07  0.6119059E-04 -0.7540912E-04 -0.9070479E-08 -0.2337797E-07 -0.1601706E+03  0.5476806E+02  0.1427265E-05 -0.4814989E-06
  0.1200000E+01  0.9331774E+03 -0.3930552E+03 -0.1914091E-07  0.6601798E-07  0.6119059E-04 -0.9353345E-04 -0.9070479E-08 -0.2368682E-07 -0.1601706E+03  0.5533819E+02  0.1427265E-05 -0.2795952E-06
  0.1300000E+01  0.9331774E+03 -0.3694543E+03 -0.1914091E-07  0.6164965E-07  0.6119059E-04 -0.1067054E-03 -0.9070479E-08 -0.2230307E-07 -0.1601706E+03  0.5191845E+02  0.1427265E-05 -0.1987458E-07
  0.1400000E+01  0.9331774E+03 -0.3198178E+03 -0.1914091E-07  0.5289254E-07  0.6119059E-04 -0.1146206E-03 -0.9070479E-08 -0.1934493E-07 -0.1601706E+03  0.4482661E+02  0.1427265E-05  0.2798981E-06
  0.1500000E+01  0.9331774E+03 -0.2482641E+03 -0.1914091E-07  0.4047504E-07  0.6119059E-04 -0.1172591E-03 -0.9070479E-08 -0.1504462E-07 -0.1601706E+03  0.3465002E+02  0.1427265E-05  0.5968036E-06
  0.1600000E+01  0.9331774E+03 -0.1604812E+03 -0.1914091E-07  0.2539222E-07  0.6119059E-04 -0.1148701E-03 -0.9070479E-08 -0.9730075E-08 -0.1601706E+03  0.2219765E+02  0.1427265E-05  0.9044967E-06
  0.1700000E+01  0.9331774E+03 -0.6327398E+02 -0.1914091E-07  0.8826142E-08  0.6119059E-04 -0.1079432E-03 -0.9070479E-08 -0.3799777E-08 -0.1601706E+03  0.8435518E+01  0.1427265E-05  0.1175338E-05
  0.1800000E+01  0.9331774E+03  0.3596935E+02 -0.1914091E-07 -0.7947254E-08  0.6119059E-04 -0.9716518E-04 -0.9070479E-08  0.2307581E-08 -0.1601706E+03 -0.5588867E+01  0.1427265E-05  0.1382713E-05
  0.1900000E+01  0.9331774E+03  0.1298463E+03 -0.1914091E-07 -0.2365768E-07  0.6119059E-04 -0.8336909E-04 -0.9070479E-08  0.8146039E-08 -0.1601706E+03 -0.1882751E+02  0.1427265E-05  0.1503394E-05
  0.2000000E+01  0.9331774E+03  0.2115045E+03 -0.1914091E-07 -0.3713853E-07  0.6119059E-04 -0.6747693E-04 -0.9070479E-08  0.1329559E-07 -0.1601706E+03 -0.3031184E+02  0.1427265E-05  0.1519726E-05
  0.2100000E+01  0.9331774E+03  0.2751530E+03 -0.1914091E-07 -0.4741564E-07  0.6119059E-04 -0.5044230E-04 -0.9070479E-08  0.1739295E-07 -0.1601706E+03 -0.3922524E+02  0.1427265E-05  0.1421444E-05
  0.2200000E+01  0.9331774E+03  0.3164857E+03 -0.1914091E-07 -0.5377993E-07  0.6119059E-04 -0.3319493E-04 -0.9070479E-08  0.2015786E-07 -0.1601706E+03 -0.4496281E+02  0.1427265E-05  0.1206983E-05
  0.2300000E+01  0.9331774E+03  0.3329832E+03 -0.1914091E-07 -0.5583880E-07  0.6119059E-04 -0.1659070E-04 -0.9070479E-08  0.2141280E-07 -0.1601706E+03 -0.4717383E+02  0.1427265E-05  0.8841083E-06
  0.2400000E+01  0.9331774E+03  0.3240698E+03 -0.1914091E-07 -0.5354161E-07  0.6119059E-04 -0.1371309E-05 -0.9070479E-08  0.2109467E-07 -0.1601706E+03 -0.4578392E+02  0.1427265E-05  0.4698274E-06
  0.2500000E+01  0.9331774E+03  0.2911199E+03 -0.1914091E-07 -0.4717836E-07  0.6119059E-04  0.1186597E-04 -0.9070479E-08  0.1925778E-07 -0.1601706E+03 -0.4099514E+02  0.1427265E-05 -0.1045680E-07
  0.2600000E+01  0.9331774E+03  0.2373104E+03 -0.1914091E-07 -0.3735135E-07  0.6119059E-04  0.2268706E-04 -0.9070479E-08  0.1606793E-07 -0.1601706E+03 -0.3326491E+02  0.1427265E-05 -0.5245375E-06
  0.2700000E+01  0.9331774E+03  0.1673379E+03 -0.1914091E-07 -0.2492292E-07  0.6119059E-04  0.3082762E-04 -0.9070479E-08  0.1178821E-07 -0.1601706E+03 -0.2326529E+02  0.1427265E-05 -0.1035589E-05
  0.2800000E+01  0.9331774E+03  0.8702176E+02 -0.1914091E-07 -0.1094296E-07  0.6119059E-04  0.3618919E-04 -0.9070479E-08  0.6757619E-08 -0.1601706E+03 -0.1182632E+02  0.1427265E-05 -0.1504850E-05
  0.2900000E+01  0.9331774E+03  0.2827825E+01 -0.1914091E-07  0.3437236E-08  0.6119059E-04  0.3882520E-04 -0.9070479E-08  0.1364332E-08 -0.1601706E+03  0.1319261E+00  0.1427265E-05 -0.1894588E-05
  0.3000000E+01  0.9331774E+03 -0.7864828E+02 -0.1914091E-07  0.1705780E-07  0.6119059E-04  0.3892025E-04 -0.9070479E-08 -0.3984354E-08 -0.1601706E+03  0.1167283E+02  0.1427265E-05 -0.2171097E-05
  0.3100000E+01  0.9331774E+03 -0.1511990E+03 -0.1914091E-07  0.2884299E-07  0.6119059E-04  0.3676362E-04 -0.9070479E-08 -0.8893124E-08 -0.1601706E+03  0.2191682E+02  0.1427265E-05 -0.2307544E-05
  0.3200000E+01  0.9331774E+03 -0.2094791E+03 -0.1914091E-07  0.3788553E-07  0.6119059E-04  0.3272096E-04 -0.9070479E-08 -0.1300810E-07 -0.1601706E+03  0.3010863E+02  0.1427265E-05 -0.2286386E-05
  0.3300000E+01  0.9331774E+03 -0.2494040E+03 -0.1914091E-07  0.4351647E-07  0.6119059E-04  0.2720523E-04 -0.9070479E-08 -0.1604293E-07 -0.1601706E+03  0.3567362E+02  0.1427265E-05 -0.2101170E-05
  0.3400000E+01  0.9331774E+03 -0.2684386E+03 -0.1914091E-07  0.4535507E-07  0.6119059E-04  0.2065024E-04 -0.9070479E-08 -0.1779902E-07 -0.1601706E+03  0.3825854E+02  0.1427265E-05 -0.1757543E-05
  0.3500000E+01  0.9331774E+03 -0.2657585E+03 -0.1914091E-07  0.4333480E-07  0.6119059E-04  0.1348746E-04 -0.9070479E-08 -0.1817897E-07 -0.1601706E+03  0.3775390E+02  0.1427265E-05 -0.1273377E-05
  0.3600000E+01  0.9331774E+03 -0.2422710E+03 -0.1914091E-07  0.3770387E-07  0.6119059E-04  0.6127692E-05 -0.9070479E-08 -0.1719177E-07 -0.1601706E+03  0.3429650E+02  0.1427265E-05 -0.6779154E-06
  0.3700000E+01  0.9331774E+03 -0.2004996E+03 -0.1914091E-07  0.2900032E-07  0.6119059E-04 -0.1052096E-05 -0.9070479E-08 -0.1495002E-07 -0.1601706E+03  0.2825255E+02  0.1427265E-05 -0.1006257E-07
  0.3800000E+01  0.9331774E+03 -0.1443418E+03 -0.1914091E-07  0.1800405E-07  0.6119059E-04 -0.7716763E-05 -0.9070479E-08 -0.1165903E-07 -0.1601706E+03  0.2018264E+02  0.1427265E-05  0.6842157E-06
  0.3900000E+01  0.9331774E+03 -0.7872325E+02 -0.1914091E-07  0.5670159E-08  0.6119059E-04 -0.1357655E-04 -0.9070479E-08 -0.7599163E-08 -0.1601706E+03  0.1079223E+02  0.1427265E-05  0.1355072E-05
  0.4000000E+01  0.9331774E+03 -0.9178981E+01 -0.1914091E-07 -0.6951349E-08  0.6119059E-04 -0.1838732E-04 -0.9070479E-08 -0.3102731E-08 -0.1601706E+03  0.8717210E+00  0.1427265E-05  0.1952427E-05
  0.4100000E+01  0.9331774E+03  0.5860580E+02 -0.1914091E-07 -0.1880232E-07  0.6119059E-04 -0.2194878E-04 -0.9070479E-08  0.1472841E-08 -0.1601706E+03 -0.8769032E+01  0.1427265E-05  0.2429755E-05
  0.4200000E+01  0.9331774E+03  0.1192549E+03 -0.1914091E-07 -0.2890293E-07  0.6119059E-04 -0.2410174E-04 -0.9070479E-08  0.5773106E-08 -0.1601706E+03 -0.1736607E+02  0.1427265E-05  0.2747746E-05
  0.4300000E+01  0.9331774E+03  0.1681228E+03 -0.1914091E-07 -0.3643041E-07  0.6119059E-04 -0.2472623E-04 -0.9070479E-08  0.9473821E-08 -0.1601706E+03 -0.2426136E+02  0.1427265E-05  0.2877554E-05
  0.4400000E+01  0.9331774E+03  0.2016512E+03 -0.1914091E-07 -0.4078478E-07  0.6119059E-04 -0.2374114E-04 -0.9070479E-08  0.1230565E-07 -0.1601706E+03 -0.2895318E+02  0.1427265E-05  0.2803357E-05
  0.4500000E+01  0.9331774E+03  0.2176252E+03 -0.1914091E-07 -0.4163492E-07  0.6119059E-04 -0.2110562E-04 -0.9070479E-08  0.1407375E-07 -0.1601706E+03 -0.3113226E+02  0.1427265E-05  0.2524015E-05
  0.4600000E+01  0.9331774E+03  0.2153161E+03 -0.1914091E-07 -0.3894269E-07  0.6119059E-04 -0.1682377E-04 -0.9070479E-08  0.1467141E-07 -0.1601706E+03 -0.3070176E+02  0.1427265E-05  0.2053673E-05
  0.4700000E+01  0.9331774E+03  0.1955004E+03 -0.1914091E-07 -0.3296269E-07  0.6119059E-04 -0.1095036E-04 -0.9070479E-08  0.1408637E-07 -0.1601706E+03 -0.2777940E+02  0.1427265E-05  0.1421192E-05
  0.4800000E+01  0.9331774E+03  0.1603560E+03 -0.1914091E-07 -0.2421826E-07  0.6119059E-04 -0.3598623E-05 -0.9070479E-08  0.1239981E-07 -0.1601706E+03 -0.2268222E+02  0.1427265E-05  0.6684946E-06
  0.4900000E+01  0.9331774E+03  0.1132464E+03 -0.1914091E-07 -0.1345582E-07  0.6119059E-04  0.5052518E-05 -0.9070479E-08  0.9777893E-08 -0.1601706E+03 -0.1589539E+02  0.1427265E-05 -0.1522100E-06
  0.5000000E+01  0.9331774E+03  0.5841447E+02 -0.1914091E-07 -0.1581168E-08  0.6119059E-04  0.1475208E-04 -0.9070479E-08  0.6456917E-08 -0.1601706E+03 -0.8028111E+01  0.1427265E-05 -0.9820280E-06
  0.5100000E+01  0.9331774E+03  0.6114846E+00 -0.1914091E-07  0.1041611E-07  0.6119059E-04  0.2517377E-04 -0.9070479E-08  0.2723142E-08 -0.1601706E+03  0.2394734E+00  0.1427265E-05 -0.1759616E-05
  0.5200000E+01  0.9331774E+03 -0.5530643E+02 -0.1914091E-07  0.2154463E-07  0.6119059E-04  0.3591729E-04 -0.9070479E-08 -0.1110930E-08 -0.1601706E+03  0.8213957E+01  0.1427265E-05 -0.2425746E-05
  0.5300000E+01  0.9331774E+03 -0.1047785E+03 -0.1914091E-07  0.3089228E-07  0.6119059E-04  0.4651447E-04 -0.9070479E-08 -0.4731734E-08 -0.1601706E+03  0.1524584E+02  0.1427265E-05 -0.2927832E-05
  0.5400000E+01  0.9331774E+03 -0.1439085E+03 -0.1914091E-07  0.3770039E-07  0.6119059E-04  0.5644266E-04 -0.9070479E-08 -0.7849763E-08 -0.1601706E+03  0.2078200E+02  0.1427265E-05 -0.3224113E-05
  0.5500000E+01  0.9331774E+03 -0.1697670E+03 -0.1914091E-07  0.4142421E-07  0.6119059E-04  0.6514396E-04 -0.9070479E-08 -0.1022200E-07 -0.1601706E+03  0.2440862E+02  0.1427265E-05 -0.3287119E-05
  0.5600000E+01  0.9331774E+03 -0.1806077E+03 -0.1914091E-07  0.4177545E-07  0.6119059E-04  0.7205079E-04 -0.9070479E-08 -0.1167054E-07 -0.1601706E+03  0.2588168E+02  0.1427265E-05 -0.3106152E-05
  0.5700000E+01  0.9331774E+03 -0.1759805E+03 -0.1914091E-07  0.3874342E-07  0.6119059E-04  0.7661672E-04 -0.9070479E-08 -0.1209556E-07 -0.1601706E+03  0.2514272E+02  0.1427265E-05 -0.2688561E-05
  0.5800000E+01  0.9331774E+03 -0.1567347E+03 -0.1914091E-07  0.3259351E-07  0.6119059E-04  0.7835045E-04 -0.9070479E-08 -0.1148191E-07 -0.1601706E+03  0.2231886E+02  0.1427265E-05 -0.2059707E-05
  0.5900000E+01  0.9331774E+03 -0.1249133E+03 -0.1914091E-07  0.2384257E-07  0.6119059E-04  0.7685157E-04 -0.9070479E-08 -0.9898941E-08 -0.1601706E+03  0.1770729E+02  0.1427265E-05 -0.1261497E-05
  0.6000000E+01  0.9331774E+03 -0.8355274E+02 -0.1914091E-07  0.1321458E-07  0.6119059E-04  0.7184435E-04 -0.9070479E-08 -0.7493554E-08 -0.1601706E+03  0.1174625E+02  0.1427265E-05 -0.3496753E-06
  0.6100000E+01  0.9331774E+03 -0.3640289E+02 -0.1914091E-07  0.1579567E-08  0.6119059E-04  0.6320808E-04 -0.9070479E-08 -0.4477144E-08 -0.1601706E+03  0.4974765E+01  0.1427265E-05  0.6100241E-06
  0.6200000E+01  0.9331774E+03  0.1240445E+02 -0.1914091E-07 -0.1011908E-07  0.6119059E-04  0.5100048E-04 -0.9070479E-08 -0.1107771E-08 -0.1601706E+03 -0.2014919E+01  0.1427265E-05  0.1546626E-05
  0.6300000E+01  0.9331774E+03  0.5871015E+02 -0.1914091E-07 -0.2094156E-07  0.6119059E-04  0.3547259E-04 -0.9070479E-08  0.2331235E-08 -0.1601706E+03 -0.8628106E+01  0.1427265E-05  0.2389119E-05
  0.6400000E+01  0.9331774E+03  0.9867828E+02 -0.1914091E-07 -0.3002880E-07  0.6119059E-04  0.1707178E-04 -0.9070479E-08  0.5554405E-08 -0.1601706E+03 -0.1431772E+02  0.1427265E-05  0.3071861E-05
  0.6500000E+01  0.9331774E+03  0.1291087E+03 -0.1914091E-07 -0.3667104E-07  0.6119059E-04 -0.3566410E-05 -0.9070479E-08  0.8296943E-08 -0.1601706E+03 -0.1862884E+02  0.1427265E-05  0.3539673E-05
  0.6600000E+01  0.9331774E+03  0.1476904E+03 -0.1914091E-07 -0.4036402E-07  0.6119059E-04 -0.2563955E-04 -0.9070479E-08  0.1033576E-07 -0.1601706E+03 -0.2123468E+02  0.1427265E-05  0.3752265E-05
  0.6700000E+01  0.9331774E+03  0.1531730E+03 -0.1914091E-07 -0.4084743E-07  0.6119059E-04 -0.4821151E-04 -0.9070479E-08  0.1150682E-07 -0.1601706E+03 -0.2196083E+02  0.1427265E-05  0.3687658E-05
  0.6800000E+01  0.9331774E+03  0.1454465E+03 -0.1914091E-07 -0.3812322E-07  0.6119059E-04 -0.7025578E-04 -0.9070479E-08  0.1171756E-07 -0.1601706E+03 -0.2079623E+02  0.1427265E-05  0.3344259E-05
  0.6900000E+01  0.9331774E+03  0.1255217E+03 -0.1914091E-07 -0.3245180E-07  0.6119059E-04 -0.9070832E-04 -0.9070479E-08  0.1095351E-07 -0.1601706E+03 -0.1789011E+02  0.1427265E-05  0.2741473E-05
  0.7000000E+01  0.9331774E+03  0.9541745E+02 -0.1914091E-07 -0.2432758E-07  0.6119059E-04 -0.1085247E-03 -0.9070479E-08  0.9278715E-08 -0.1601706E+03 -0.1353543E+02  0.1427265E-05  0.1918684E-05
  0.7100000E+01  0.9331774E+03  0.5796544E+02 -0.1914091E-07 -0.1443526E-07  0.6119059E-04 -0.1227390E-03 -0.9070479E-08  0.6829650E-08 -0.1601706E+03 -0.8140674E+01  0.1427265E-05  0.9327190E-06
  0.7200000E+01  0.9331774E+03  0.1655028E+02 -0.1914091E-07 -0.3591224E-08  0.6119059E-04 -0.1325225E-03 -0.9070479E-08  0.3803943E-08 -0.1601706E+03 -0.2192457E+01  0.1427265E-05 -0.1460628E-06
  0.7300000E+01  0.9331774E+03 -0.2518994E+02 -0.1914091E-07  0.7324836E-08  0.6119059E-04 -0.1372341E-03 -0.9070479E-08  0.4439864E-09 -0.1601706E+03  0.3787485E+01  0.1427265E-05 -0.1238809E-05
  0.7400000E+01  0.9331774E+03 -0.6367953E+02 -0.1914091E-07  0.1744298E-07  0.6119059E-04 -0.1364640E-03 -0.9070479E-08 -0.2982623E-08 -0.1601706E+03  0.9287519E+01  0.1427265E-05 -0.2263988E-05
  0.7500000E+01  0.9331774E+03 -0.9570743E+02 -0.1914091E-07  0.2597399E-07  0.6119059E-04 -0.1300631E-03 -0.9070479E-08 -0.6204454E-08 -0.1601706E+03  0.1384936E+02  0.1427265E-05 -0.3143499E-05
  0.7600000E+01  0.9331774E+03 -0.1186914E+03 -0.1914091E-07  0.3227247E-07  0.6119059E-04 -0.1181592E-03 -0.9070479E-08 -0.8967559E-08 -0.1601706E+03  0.1710572E+02  0.1427265E-05 -0.3808637E-05
  0.7700000E+01  0.9331774E+03 -0.1308840E+03 -0.1914091E-07  0.3588725E-07  0.6119059E-04 -0.1011566E-03 -0.9070479E-08 -0.1105532E-07 -0.1601706E+03  0.1880954E+02  0.1427265E-05 -0.4205474E-05
  0.7800000E+01  0.9331774E+03 -0.1315019E+03 -0.1914091E-07  0.3659514E-07  0.6119059E-04 -0.7972012E-04 -0.9070479E-08 -0.1230509E-07 -0.1601706E+03  0.1885228E+02  0.1427265E-05 -0.4299235E-05
  0.7900000E+01  0.9331774E+03 -0.1207711E+03 -0.1914091E-07  0.3441459E-07  0.6119059E-04 -0.5474256E-04 -0.9070479E-08 -0.1262039E-07 -0.1601706E+03  0.1727010E+02  0.1427265E-05 -0.4077257E-05
  0.8000000E+01  0.9331774E+03 -0.9988468E+02 -0.1914091E-07  0.2959985E-07  0.6119059E-04 -0.2730003E-04 -0.9070479E-08 -0.1197790E-07 -0.1601706E+03  0.1423747E+02  0.1427265E-05 -0.3550353E-05
  0.8100000E+01  0.9331774E+03 -0.7087904E+02 -0.1914091E-07  0.2261482E-07  0.6119059E-04  0.1404644E-05 -0.9070479E-08 -0.1042855E-07 -0.1601706E+03  0.1004917E+02  0.1427265E-05 -0.2752388E-05
  0.8200000E+01  0.9331774E+03 -0.3644141E+02 -0.1914091E-07  0.1409060E-07  0.6119059E-04  0.3010501E-04 -0.9070479E-08 -0.8092957E-08 -0.1601706E+03  0.5092514E+01  0.1427265E-05 -0.1738124E-05
  0.8300000E+01  0.9331774E+03  0.3361479E+00 -0.1914091E-07  0.4768774E-08  0.6119059E-04  0.5753947E-04 -0.9070479E-08 -0.5151221E-08 -0.1601706E+03 -0.1880431E+00  0.1427265E-05 -0.5793697E-06
  0.8400001E+01  0.9331774E+03  0.3622874E+02 -0.1914091E-07 -0.4562364E-08  0.6119059E-04  0.8251595E-04 -0.9070479E-08 -0.1828700E-08 -0.1601706E+03 -0.5329992E+01  0.1427265E-05  0.6401384E-06
  0.8500000E+01  0.9331774E+03  0.6815912E+02 -0.1914091E-07 -0.1313535E-07  0.6119059E-04  0.1039745E-03 -0.9070479E-08  0.1621906E-08 -0.1601706E+03 -0.9892953E+01  0.1427265E-05  0.1830886E-05
  0.8600000E+01  0.9331774E+03  0.9345979E+02 -0.1914091E-07 -0.2026798E-07  0.6119059E-04  0.1210411E-03 -0.9070479E-08  0.4940427E-08 -0.1601706E+03 -0.1349612E+02  0.1427265E-05  0.2904322E-05
  0.8700000E+01  0.9331774E+03  0.1100914E+03 -0.1914091E-07 -0.2541861E-07  0.6119059E-04  0.1330674E-03 -0.9070479E-08  0.7878925E-08 -0.1601706E+03 -0.1584945E+02  0.1427265E-05  0.3779480E-05
  0.8800000E+01  0.9331774E+03  0.1168069E+03 -0.1914091E-07 -0.2822937E-07  0.6119059E-04  0.1396607E-03 -0.9070479E-08  0.1022089E-07 -0.1601706E+03 -0.1677694E+02  0.1427265E-05  0.4389283E-05
  0.8900001E+01  0.9331774E+03  0.1132408E+03 -0.1914091E-07 -0.2855230E-07  0.6119059E-04  0.1406942E-03 -0.9070479E-08  0.1179703E-07 -0.1601706E+03 -0.1622925E+02  0.1427265E-05  0.4685704E-05
  0.9000000E+01  0.9331774E+03  0.9992352E+02 -0.1914091E-07 -0.2645721E-07  0.6119059E-04  0.1363057E-03 -0.9070479E-08  0.1249788E-07 -0.1601706E+03 -0.1428542E+02  0.1427265E-05  0.4643668E-05
  0.9100000E+01  0.9331774E+03  0.7821606E+02 -0.1914091E-07 -0.2222063E-07  0.6119059E-04  0.1268784E-03 -0.9070479E-08  0.1228116E-07 -0.1601706E+03 -0.1114336E+02  0.1427265E-05  0.4263196E-05
  0.9200000E+01  0.9331774E+03  0.5017742E+02 -0.1914091E-07 -0.1629691E-07  0.6119059E-04  0.1130112E-03 -0.9070479E-08  0.1117414E-07 -0.1601706E+03 -0.7100508E+01  0.1427265E-05  0.3569641E-05
  0.9300000E+01  0.9331774E+03  0.1837056E+02 -0.1914091E-07 -0.9274284E-08  0.6119059E-04  0.9547573E-04 -0.9070479E-08  0.9270563E-08 -0.1601706E+03 -0.2525970E+01  0.1427265E-05  0.2612005E-05
  0.9400001E+01  0.9331774E+03 -0.1436670E+02 -0.1914091E-07 -0.1820611E-08  0.6119059E-04  0.7516866E-04 -0.9070479E-08  0.6722596E-08 -0.1601706E+03  0.2172536E+01  0.1427265E-05  0.1459490E-05
  0.9500000E+01  0.9331774E+03 -0.4517358E+02 -0.1914091E-07  0.5378082E-08  0.6119059E-04  0.5305761E-04 -0.9070479E-08  0.3728410E-08 -0.1601706E+03  0.6584779E+01  0.1427265E-05  0.1963692E-06
  0.9600000E+01  0.9331774E+03 -0.7141454E+02 -0.1914091E-07  0.1167880E-07  0.6119059E-04  0.3012690E-04 -0.9070479E-08  0.5163178E-09 -0.1601706E+03  0.1033362E+02  0.1427265E-05 -0.1084305E-05
  0.9700000E+01  0.9331774E+03 -0.9090119E+02 -0.1914091E-07  0.1653806E-07  0.6119059E-04  0.7328092E-05 -0.9070479E-08 -0.2672637E-08 -0.1601706E+03  0.1310671E+02  0.1427265E-05 -0.2287627E-05
  0.9800000E+01  0.9331774E+03 -0.1020750E+03 -0.1914091E-07  0.1955944E-07  0.6119059E-04 -0.1446679E-04 -0.9070479E-08 -0.5603440E-08 -0.1601706E+03  0.1468255E+02  0.1427265E-05 -0.3324128E-05
  0.9900001E+01  0.9331774E+03 -0.1041283E+03 -0.1914091E-07  0.2052658E-07  0.6119059E-04 -0.3450075E-04 -0.9070479E-08 -0.8064450E-08 -0.1601706E+03  0.1494773E+02  0.1427265E-05 -0.4116534E-05
Zone t="DoF    2",I=   100,F=POINT
  0.0000000E+00  0.1187372E-06  0.1290518E-06  0.3738018E+03  0.1565274E+03  0.1712732E-05 -0.7722834E-07  0.1423522E+02 -0.2598582E+02  0.2414768E-07  0.1128539E-06 -0.1194725E-05 -0.1188645E-07
  0.1000000E+00  0.1187372E-06  0.1238040E-06  0.3738018E+03  0.1511439E+03  0.1712732E-05 -0.5986306E-07  0.1423522E+02 -0.2512573E+02  0.2414768E-07  0.1084484E-06 -0.1194725E-05 -0.1507006E-07
  0.2000000E+00  0.1187372E-06  0.1085200E-06  0.3738018E+03  0.1353839E+03  0.1712732E-05 -0.1000207E-07  0.1423522E+02 -0.2260623E+02  0.2414768E-07  0.9558403E-07 -0.1194725E-05 -0.2420592E-07
  0.3000000E+00  0.1187372E-06  0.8453671E-07  0.3738018E+03  0.1103897E+03  0.1712732E-05  0.6588754E-07  0.1423522E+02 -0.1860515E+02  0.2414768E-07  0.7528794E-07 -0.1194725E-05 -0.3809003E-07
  0.4000000E+00  0.1187372E-06  0.5394954E-07  0.3738018E+03  0.7796906E+02  0.1712732E-05  0.1577762E-06  0.1423522E+02 -0.1340431E+02  0.2414768E-07  0.4917971E-07 -0.1194725E-05 -0.5485097E-07
  0.5000000E+00  0.1187372E-06  0.1942535E-07  0.3738018E+03  0.4046075E+02  0.1712732E-05  0.2531295E-06  0.1423522E+02 -0.7368769E+01  0.2414768E-07  0.1933998E-07 -0.1194725E-05 -0.7213837E-07
  0.6000000E+00  0.1187372E-06 -0.1603541E-07  0.3738018E+03  0.5587320E+00  0.1712732E-05  0.3382364E-06  0.1423522E+02 -0.9201182E+00  0.2414768E-07 -0.1185769E-07 -0.1194725E-05 -0.8736291E-07
  0.7000000E+00  0.1187372E-06 -0.4936606E-07  0.3738018E+03 -0.3888818E+02  0.1712732E-05  0.3996877E-06  0.1423522E+02  0.5494346E+01  0.2414768E-07 -0.4193846E-07 -0.1194725E-05 -0.9796404E-07
  0.8000000E+00  0.1187372E-06 -0.7770711E-07  0.3738018E+03 -0.7508799E+02  0.1712732E-05  0.4258602E-06  0.1423522E+02  0.1143414E+02  0.2414768E-07 -0.6852588E-07 -0.1194725E-05 -0.1016822E-06
  0.9000000E+00  0.1187372E-06 -0.9866060E-07  0.3738018E+03 -0.1055112E+03  0.1712732E-05  0.4082588E-06  0.1423522E+02  0.1649731E+02  0.2414768E-07 -0.8953280E-07 -0.1194725E-05 -0.9680819E-07
  0.1000000E+01  0.1187372E-06 -0.1105032E-06  0.3738018E+03 -0.1280757E+03  0.1712732E-05  0.3425839E-06  0.1423522E+02  0.2034918E+02  0.2414768E-07 -0.1033287E-06 -0.1194725E-05 -0.8238614E-07
  0.1100000E+01  0.1187372E-06 -0.1123385E-06  0.3738018E+03 -0.1412964E+03  0.1712732E-05  0.2294124E-06  0.1423522E+02  0.2274573E+02  0.2414768E-07 -0.1088692E-06 -0.1194725E-05 -0.5835176E-07
  0.1200000E+01  0.1187372E-06 -0.1041751E-06  0.3738018E+03 -0.1443886E+03  0.1712732E-05  0.7441876E-07  0.1423522E+02  0.2355017E+02  0.2414768E-07 -0.1057778E-06 -0.1194725E-05 -0.2558966E-07
  0.1300000E+01  0.1187372E-06 -0.8692312E-07  0.3738018E+03 -0.1373176E+03  0.1712732E-05 -0.1119009E-06  0.1423522E+02  0.2274133E+02  0.2414768E-07 -0.9437305E-07 -0.1194725E-05  0.1409710E-07
  0.1400000E+01  0.1187372E-06 -0.6230946E-07  0.3738018E+03 -0.1207918E+03  0.1712732E-05 -0.3149867E-06  0.1423522E+02  0.2041342E+02  0.2414768E-07 -0.7563943E-07 -0.1194725E-05  0.5810274E-07
  0.1500000E+01  0.1187372E-06 -0.3271939E-07  0.3738018E+03 -0.9619894E+02  0.1712732E-05 -0.5173994E-06  0.1423522E+02  0.1676727E+02  0.2414768E-07 -0.5114361E-07 -0.1194725E-05  0.1032149E-06
  0.1600000E+01  0.1187372E-06 -0.9787248E-09  0.3738018E+03 -0.6549303E+02  0.1712732E-05 -0.7003288E-06  0.1423522E+02  0.1209378E+02  0.2414768E-07 -0.2290467E-07 -0.1194725E-05  0.1458719E-06
  0.1700000E+01  0.1187372E-06  0.2990443E-07  0.3738018E+03 -0.3103921E+02  0.1712732E-05 -0.8453045E-06  0.1423522E+02  0.6751015E+01  0.2414768E-07  0.6772559E-08 -0.1194725E-05  0.1824623E-06
  0.1800000E+01  0.1187372E-06  0.5701496E-07  0.3738018E+03  0.4569862E+01  0.1712732E-05 -0.9359462E-06  0.1423522E+02  0.1136563E+01  0.2414768E-07  0.3548629E-07 -0.1194725E-05  0.2096396E-06
  0.1900000E+01  0.1187372E-06  0.7779770E-07  0.3738018E+03  0.3871218E+02  0.1712732E-05 -0.9595984E-06  0.1423522E+02 -0.4342413E+01  0.2414768E-07  0.6093343E-07 -0.1194725E-05  0.2246268E-06
  0.2000000E+01  0.1187372E-06  0.9029331E-07  0.3738018E+03  0.6893369E+02  0.1712732E-05 -0.9086995E-06  0.1423522E+02 -0.9299414E+01  0.2414768E-07  0.8109637E-07 -0.1194725E-05  0.2254805E-06
  0.2100000E+01  0.1187372E-06  0.9331981E-07  0.3738018E+03  0.9312908E+02  0.1712732E-05 -0.7817430E-06  0.1423522E+02 -0.1339658E+02  0.2414768E-07  0.9440501E-07 -0.1194725E-05  0.2112936E-06
  0.2200000E+01  0.1187372E-06  0.8658507E-07  0.3738018E+03  0.1096934E+03  0.1712732E-05 -0.5837422E-06  0.1423522E+02 -0.1636851E+02  0.2414768E-07  0.9986162E-07 -0.1194725E-05  0.1823157E-06
  0.2300000E+01  0.1187372E-06  0.7071807E-07  0.3738018E+03  0.1176323E+03  0.1712732E-05 -0.3261258E-06  0.1423522E+02 -0.1804022E+02  0.2414768E-07  0.9711798E-07 -0.1194725E-05  0.1399781E-06
  0.2400000E+01  0.1187372E-06  0.4721682E-07  0.3738018E+03  0.1166238E+03  0.1712732E-05 -0.2606676E-07  0.1423522E+02 -0.1833771E+02  0.2414768E-07  0.8649882E-07 -0.1194725E-05  0.8682185E-07
  0.2500000E+01  0.1187372E-06  0.1831643E-07  0.3738018E+03  0.1070274E+03  0.1712732E-05  0.2947170E-06  0.1423522E+02 -0.1729083E+02  0.2414768E-07  0.6897017E-07 -0.1194725E-05  0.2632892E-07
  0.2600000E+01  0.1187372E-06 -0.1321135E-07  0.3738018E+03  0.8984005E+02  0.1712732E-05  0.6116128E-06  0.1423522E+02 -0.1502819E+02  0.2414768E-07  0.4605490E-07 -0.1194725E-05 -0.3733077E-07
  0.2700000E+01  0.1187372E-06 -0.4430859E-07  0.3738018E+03  0.6660526E+02  0.1712732E-05  0.8990673E-06  0.1423522E+02 -0.1176466E+02  0.2414768E-07  0.1970367E-07 -0.1194725E-05 -0.9961305E-07
  0.2800000E+01  0.1187372E-06 -0.7191124E-07  0.3738018E+03  0.3928085E+02  0.1712732E-05  0.1132704E-05  0.1423522E+02 -0.7782652E+01  0.2414768E-07 -0.7869178E-08 -0.1194725E-05 -0.1559577E-06
  0.2900000E+01  0.1187372E-06 -0.9323193E-07  0.3738018E+03  0.1007834E+02  0.1712732E-05  0.1291407E-05  0.1423522E+02 -0.3408786E+01  0.2414768E-07 -0.3436995E-07 -0.1194725E-05 -0.2021495E-06
  0.3000000E+01  0.1187372E-06 -0.1060205E-06  0.3738018E+03 -0.1871351E+02  0.1712732E-05  0.1359212E-05  0.1423522E+02  0.1012281E+01  0.2414768E-07 -0.5761498E-07 -0.1194725E-05 -0.2346656E-06
  0.3100000E+01  0.1187372E-06 -0.1087809E-06  0.3738018E+03 -0.4490787E+02  0.1712732E-05  0.1326817E-05  0.1423522E+02  0.5144677E+01  0.2414768E-07 -0.7571057E-07 -0.1194725E-05 -0.2509725E-06
  0.3200000E+01  0.1187372E-06 -0.1009202E-06  0.3738018E+03 -0.6658574E+02  0.1712732E-05  0.1192598E-05  0.1423522E+02  0.8686690E+01  0.2414768E-07 -0.8720700E-07 -0.1194725E-05 -0.2497441E-06
  0.3300000E+01  0.1187372E-06 -0.8281935E-07  0.3738018E+03 -0.8223784E+02  0.1712732E-05  0.9630030E-06  0.1423522E+02  0.1139286E+02  0.2414768E-07 -0.9121539E-07 -0.1194725E-05 -0.2309912E-06
  0.3400000E+01  0.1187372E-06 -0.5581672E-07  0.3738018E+03 -0.9087048E+02  0.1712732E-05  0.6523011E-06  0.1423522E+02  0.1309105E+02  0.2414768E-07 -0.8747713E-07 -0.1194725E-05 -0.1960820E-06
  0.3500000E+01  0.1187372E-06 -0.2210530E-07  0.3738018E+03 -0.9206838E+02  0.1712732E-05  0.2816765E-06  0.1423522E+02  0.1369328E+02  0.2414768E-07 -0.7638085E-07 -0.1194725E-05 -0.1476532E-06
  0.3600000E+01  0.1187372E-06  0.1544874E-07  0.3738018E+03 -0.8601075E+02  0.1712732E-05 -0.1222751E-06  0.1423522E+02  0.1319985E+02  0.2414768E-07 -0.5892566E-07 -0.1194725E-05 -0.8941615E-07
  0.3700000E+01  0.1187372E-06  0.5355050E-07  0.3738018E+03 -0.7343993E+02  0.1712732E-05 -0.5295187E-06  0.1423522E+02  0.1169628E+02  0.2414768E-07 -0.3663390E-07 -0.1194725E-05 -0.2587536E-07
  0.3800000E+01  0.1187372E-06  0.8876290E-07  0.3738018E+03 -0.5558625E+02  0.1712732E-05 -0.9088974E-06  0.1423522E+02  0.9343746E+01  0.2414768E-07 -0.1142100E-07 -0.1194725E-05  0.3802561E-07
  0.3900000E+01  0.1187372E-06  0.1178119E-06  0.3738018E+03 -0.3405647E+02  0.1712732E-05 -0.1230583E-05  0.1423522E+02  0.6363881E+01  0.2414768E-07  0.1456658E-07 -0.1194725E-05  0.9729424E-07
  0.4000000E+01  0.1187372E-06  0.1378796E-06  0.3738018E+03 -0.1069543E+02  0.1712732E-05 -0.1468476E-05  0.1423522E+02  0.3019230E+01  0.2414768E-07  0.3913140E-07 -0.1194725E-05  0.1472899E-06
  0.4100000E+01  0.1187372E-06  0.1468660E-06  0.3738018E+03  0.1256806E+02  0.1712732E-05 -0.1602362E-05  0.1423522E+02 -0.4088988E+00  0.2414768E-07  0.6020900E-07 -0.1194725E-05  0.1841033E-06
  0.4200000E+01  0.1187372E-06  0.1435883E-06  0.3738018E+03  0.3387733E+02  0.1712732E-05 -0.1619631E-05  0.1423522E+02 -0.3643409E+01  0.2414768E-07  0.7603923E-07 -0.1194725E-05  0.2048785E-06
  0.4300000E+01  0.1187372E-06  0.1279052E-06  0.3738018E+03  0.5159386E+02  0.1712732E-05 -0.1516426E-05  0.1423522E+02 -0.6433254E+01  0.2414768E-07  0.8531133E-07 -0.1194725E-05  0.2080541E-06
  0.4400000E+01  0.1187372E-06  0.1007512E-06  0.3738018E+03  0.6442261E+02  0.1712732E-05 -0.1298107E-05  0.1423522E+02 -0.8572667E+01  0.2414768E-07  0.8727156E-07 -0.1194725E-05  0.1935023E-06
  0.4500000E+01  0.1187372E-06  0.6407833E-07  0.3738018E+03  0.7150534E+02  0.1712732E-05 -0.9789929E-06  0.1423522E+02 -0.9916021E+01  0.2414768E-07  0.8178309E-07 -0.1194725E-05  0.1625546E-06
  0.4600000E+01  0.1187372E-06  0.2070726E-07  0.3738018E+03  0.7247664E+02  0.1712732E-05 -0.5813823E-06  0.1423522E+02 -0.1038746E+02  0.2414768E-07  0.6933462E-07 -0.1194725E-05  0.1179066E-06
  0.4700000E+01  0.1187372E-06 -0.2589831E-07  0.3738018E+03  0.6747848E+02  0.1712732E-05 -0.1339325E-06  0.1423522E+02 -0.9984594E+01  0.2414768E-07  0.5099677E-07 -0.1194725E-05  0.6341072E-07
  0.4800000E+01  0.1187372E-06 -0.7191641E-07  0.3738018E+03  0.5713338E+02  0.1712732E-05  0.3304807E-06  0.1423522E+02 -0.8776156E+01  0.2414768E-07  0.2833027E-07 -0.1194725E-05  0.3776185E-08
  0.4900000E+01  0.1187372E-06 -0.1134882E-06  0.3738018E+03  0.4247916E+02  0.1712732E-05  0.7772788E-06  0.1423522E+02 -0.6893989E+01  0.2414768E-07  0.3253356E-08 -0.1194725E-05 -0.5581160E-07
  0.5000000E+01  0.1187372E-06 -0.1470459E-06  0.3738018E+03  0.2487184E+02  0.1712732E-05  0.1172838E-05  0.1423522E+02 -0.4520105E+01  0.2414768E-07 -0.2211985E-07 -0.1194725E-05 -0.1101096E-06