 VARIABLES="Time (s)"
"AddedMass    1" "IRF    1"
"AddedMass    2" "IRF    2"
"AddedMass    3" "IRF    3"
"AddedMass    4" "IRF    4"
"AddedMass    5" "IRF    5"
"AddedMass    6" "IRF    6"
Zone t="DoF    1",I=   100,F=POINT
  0.0000000E+00  0.1601542E+03  0.5064679E+04 -0.9511909E-08 -0.2018128E-06  0.5543057E-05  0.1031224E-03 -0.3102089E-09 -0.9032366E-07 -0.3471110E+02 -0.6592681E+03  0.1413267E-07 -0.1982358E-05
  0.1000000E+00  0.1601542E+03  0.3689497E+04 -0.9511909E-08 -0.1967946E-06  0.5543057E-05  0.9599182E-04 -0.3102089E-09 -0.7826836E-07 -0.3471110E+02 -0.5161700E+03  0.1413267E-07 -0.3280789E-06
  0.2000000E+00  0.1601542E+03  0.9609474E+03 -0.9511909E-08 -0.1663476E-06  0.5543057E-05  0.8374757E-04 -0.3102089E-09 -0.4472667E-07 -0.3471110E+02 -0.1926727E+03  0.1413267E-07  0.3103291E-05
  0.3000000E+00  0.1601542E+03 -0.1187057E+04 -0.9511909E-08 -0.7852264E-07  0.5543057E-05  0.6657545E-04 -0.3102089E-09  0.2794817E-08 -0.3471110E+02  0.1249295E+03  0.1413267E-07  0.5308035E-05
  0.4000000E+00  0.1601542E+03 -0.2274808E+04 -0.9511909E-08  0.5098045E-07  0.5543057E-05  0.4008628E-04 -0.3102089E-09  0.5112041E-07 -0.3471110E+02  0.3262268E+03  0.1413267E-07  0.5014159E-05
  0.5000000E+00  0.1601542E+03 -0.2483582E+04 -0.9511909E-08  0.1610637E-06  0.5543057E-05  0.1583740E-04 -0.3102089E-09  0.8312713E-07 -0.3471110E+02  0.3863670E+03  0.1413267E-07  0.2265411E-05
  0.6000000E+00  0.1601542E+03 -0.2087425E+04 -0.9511909E-08  0.2129232E-06  0.5543057E-05 -0.3975897E-05 -0.3102089E-09  0.8929864E-07 -0.3471110E+02  0.3342407E+03  0.1413267E-07 -0.2550684E-05
  0.7000000E+00  0.1601542E+03 -0.1387343E+04 -0.9511909E-08  0.1936181E-06  0.5543057E-05 -0.2280528E-04 -0.3102089E-09  0.7148936E-07 -0.3471110E+02  0.2216784E+03  0.1413267E-07 -0.6712897E-05
  0.8000000E+00  0.1601542E+03 -0.6193647E+03 -0.9511909E-08  0.1232848E-06  0.5543057E-05 -0.3842618E-04 -0.3102089E-09  0.3577554E-07 -0.3471110E+02  0.9457504E+02  0.1413267E-07 -0.8113157E-05
  0.9000000E+00  0.1601542E+03  0.5208520E+02 -0.9511909E-08  0.6843784E-07  0.5543057E-05 -0.4969601E-04 -0.3102089E-09 -0.7211424E-08 -0.3471110E+02 -0.1537955E+02  0.1413267E-07 -0.6643447E-05
  0.1000000E+01  0.1601542E+03  0.5310804E+03 -0.9511909E-08  0.6105428E-07  0.5543057E-05 -0.5867098E-04 -0.3102089E-09 -0.4402649E-07 -0.3471110E+02 -0.9076267E+02  0.1413267E-07 -0.2965274E-05
  0.1100000E+01  0.1601542E+03  0.7788907E+03 -0.9511909E-08  0.4691000E-07  0.5543057E-05 -0.6563275E-04 -0.3102089E-09 -0.6761243E-07 -0.3471110E+02 -0.1265872E+03  0.1413267E-07 -0.4481209E-07
  0.1200000E+01  0.1601542E+03  0.8106288E+03 -0.9511909E-08 -0.2861310E-07  0.5543057E-05 -0.6946342E-04 -0.3102089E-09 -0.7359258E-07 -0.3471110E+02 -0.1274529E+03  0.1413267E-07  0.4819459E-06
  0.1300000E+01  0.1601542E+03  0.6781801E+03 -0.9511909E-08 -0.1189376E-06  0.5543057E-05 -0.7033129E-04 -0.3102089E-09 -0.5897402E-07 -0.3471110E+02 -0.1036639E+03  0.1413267E-07  0.1268846E-05
  0.1400000E+01  0.1601542E+03  0.4574018E+03 -0.9511909E-08 -0.1772013E-06  0.5543057E-05 -0.6670933E-04 -0.3102089E-09 -0.3120729E-07 -0.3471110E+02 -0.6737769E+02  0.1413267E-07  0.3468236E-05
  0.1500000E+01  0.1601542E+03  0.2218985E+03 -0.9511909E-08 -0.1911043E-06  0.5543057E-05 -0.5761496E-04 -0.3102089E-09 -0.1131359E-08 -0.3471110E+02 -0.3035521E+02  0.1413267E-07  0.5874601E-05
  0.1600000E+01  0.1601542E+03  0.3540464E+02 -0.9511909E-08 -0.1312566E-06  0.5543057E-05 -0.4380355E-04 -0.3102089E-09  0.2640197E-07 -0.3471110E+02 -0.1639924E+01  0.1413267E-07  0.8024776E-05
  0.1700000E+01  0.1601542E+03 -0.6880391E+02 -0.9511909E-08 -0.4099250E-07  0.5543057E-05 -0.2743117E-04 -0.3102089E-09  0.4508609E-07 -0.3471110E+02  0.1487862E+02  0.1413267E-07  0.7970488E-05
  0.1800000E+01  0.1601542E+03 -0.1044756E+03 -0.9511909E-08  0.2648297E-07  0.5543057E-05 -0.1174556E-04 -0.3102089E-09  0.4690975E-07 -0.3471110E+02  0.2086465E+02  0.1413267E-07  0.4423492E-05
  0.1900000E+01  0.1601542E+03 -0.9440073E+02 -0.9511909E-08  0.7150403E-07  0.5543057E-05  0.1338035E-05 -0.3102089E-09  0.3282324E-07 -0.3471110E+02  0.1939289E+02  0.1413267E-07 -0.1508325E-05
  0.2000000E+01  0.1601542E+03 -0.9079540E+02 -0.9511909E-08  0.1062790E-06  0.5543057E-05  0.1229305E-04 -0.3102089E-09  0.8948192E-08 -0.3471110E+02  0.1594116E+02  0.1413267E-07 -0.7126880E-05
  0.2100000E+01  0.1601542E+03 -0.1170466E+03 -0.9511909E-08  0.1422733E-06  0.5543057E-05  0.2215684E-04 -0.3102089E-09 -0.1571765E-07 -0.3471110E+02  0.1538233E+02  0.1413267E-07 -0.9804829E-05
  0.2200000E+01  0.1601542E+03 -0.1665665E+03 -0.9511909E-08  0.1592519E-06  0.5543057E-05  0.3419003E-04 -0.3102089E-09 -0.2988194E-07 -0.3471110E+02  0.1954100E+02  0.1413267E-07 -0.9412025E-05
  0.2300000E+01  0.1601542E+03 -0.1857141E+03 -0.9511909E-08  0.1256434E-06  0.5543057E-05  0.4840557E-04 -0.3102089E-09 -0.2803178E-07 -0.3471110E+02  0.2277104E+02  0.1413267E-07 -0.6125496E-05
  0.2400000E+01  0.1601542E+03 -0.1294869E+03 -0.9511909E-08  0.4725807E-07  0.5543057E-05  0.5988757E-04 -0.3102089E-09 -0.1149672E-07 -0.3471110E+02  0.1881729E+02  0.1413267E-07 -0.8269353E-06
  0.2500000E+01  0.1601542E+03 -0.1024111E+02 -0.9511909E-08 -0.4830548E-07  0.5543057E-05  0.6494462E-04 -0.3102089E-09  0.1384009E-07 -0.3471110E+02  0.6347034E+01  0.1413267E-07  0.4092642E-05
  0.2600000E+01  0.1601542E+03  0.8216934E+02 -0.9511909E-08 -0.1155971E-06  0.5543057E-05  0.6365120E-04 -0.3102089E-09  0.3817855E-07 -0.3471110E+02 -0.7696038E+01  0.1413267E-07  0.7267558E-05
  0.2700000E+01  0.1601542E+03  0.7433094E+02 -0.9511909E-08 -0.1623143E-06  0.5543057E-05  0.5587898E-04 -0.3102089E-09  0.5062117E-07 -0.3471110E+02 -0.1314963E+02  0.1413267E-07  0.7958305E-05
  0.2800000E+01  0.1601542E+03  0.2928814E+01 -0.9511909E-08 -0.2061844E-06  0.5543057E-05  0.4119708E-04 -0.3102089E-09  0.4731502E-07 -0.3471110E+02 -0.7232731E+01  0.1413267E-07  0.6219327E-05
  0.2900000E+01  0.1601542E+03 -0.8866817E+01 -0.9511909E-08 -0.1956700E-06  0.5543057E-05  0.2328053E-04 -0.3102089E-09  0.3129400E-07 -0.3471110E+02 -0.1316357E+01  0.1413267E-07  0.3006527E-05
  0.3000000E+01  0.1601542E+03  0.7125541E+02 -0.9511909E-08 -0.1341641E-06  0.5543057E-05  0.7367945E-05 -0.3102089E-09  0.3570442E-08 -0.3471110E+02 -0.6494920E+01  0.1413267E-07 -0.7454938E-06
  0.3100000E+01  0.1601542E+03  0.9841757E+02 -0.9511909E-08 -0.6203793E-07  0.5543057E-05 -0.6520895E-05 -0.3102089E-09 -0.3179082E-07 -0.3471110E+02 -0.1226823E+02  0.1413267E-07 -0.4756927E-05
  0.3200000E+01  0.1601542E+03  0.4775922E+00 -0.9511909E-08  0.5018025E-07  0.5543057E-05 -0.2127566E-04 -0.3102089E-09 -0.6316810E-07 -0.3471110E+02 -0.3784194E+01  0.1413267E-07 -0.7701292E-05
  0.3300000E+01  0.1601542E+03 -0.6043786E+02 -0.9511909E-08  0.1904294E-06  0.5543057E-05 -0.3270650E-04 -0.3102089E-09 -0.8012088E-07 -0.3471110E+02  0.7499536E+01  0.1413267E-07 -0.6227217E-05
  0.3400000E+01  0.1601542E+03  0.2466271E+02 -0.9511909E-08  0.2818278E-06  0.5543057E-05 -0.3772258E-04 -0.3102089E-09 -0.8063172E-07 -0.3471110E+02  0.1735951E+01  0.1413267E-07 -0.1241093E-05
  0.3500000E+01  0.1601542E+03  0.7396022E+02 -0.9511909E-08  0.2873048E-06  0.5543057E-05 -0.4379012E-04 -0.3102089E-09 -0.6469741E-07 -0.3471110E+02 -0.7982438E+01  0.1413267E-07  0.2242479E-05
  0.3600000E+01  0.1601542E+03 -0.3107103E+02 -0.9511909E-08  0.2148580E-06  0.5543057E-05 -0.5092526E-04 -0.3102089E-09 -0.3325903E-07 -0.3471110E+02  0.5305423E+00  0.1413267E-07  0.2230639E-05
  0.3700000E+01  0.1601542E+03 -0.7563695E+02 -0.9511909E-08  0.1280675E-06  0.5543057E-05 -0.4986976E-04 -0.3102089E-09  0.6445041E-08 -0.3471110E+02  0.8888066E+01  0.1413267E-07  0.1056984E-05
  0.3800000E+01  0.1601542E+03  0.2008906E+02 -0.9511909E-08  0.4864998E-07  0.5543057E-05 -0.4295035E-04 -0.3102089E-09  0.4529175E-07 -0.3471110E+02 -0.7302174E+00  0.1413267E-07  0.1246696E-05
  0.3900000E+01  0.1601542E+03 -0.7010304E+01 -0.9511909E-08 -0.4806361E-07  0.5543057E-05 -0.3449311E-04 -0.3102089E-09  0.7485794E-07 -0.3471110E+02 -0.1954199E+00  0.1413267E-07  0.2004436E-05
  0.4000000E+01  0.1601542E+03 -0.8222021E+02 -0.9511909E-08 -0.1545378E-06  0.5543057E-05 -0.2367568E-04 -0.3102089E-09  0.9107631E-07 -0.3471110E+02  0.1060572E+02  0.1413267E-07  0.1198050E-05
  0.4100000E+01  0.1601542E+03  0.1901463E+02 -0.9511909E-08 -0.2381734E-06  0.5543057E-05 -0.1559241E-04 -0.3102089E-09  0.9150683E-07 -0.3471110E+02  0.1368004E+01  0.1413267E-07 -0.5286354E-06
  0.4200000E+01  0.1601542E+03  0.8243861E+02 -0.9511909E-08 -0.2646551E-06  0.5543057E-05 -0.1223338E-04 -0.3102089E-09  0.7291851E-07 -0.3471110E+02 -0.9877812E+01  0.1413267E-07 -0.9482274E-06
  0.4300000E+01  0.1601542E+03 -0.1071806E+01 -0.9511909E-08 -0.2624404E-06  0.5543057E-05 -0.7860501E-05 -0.3102089E-09  0.3975688E-07 -0.3471110E+02 -0.2477832E+01  0.1413267E-07  0.1782336E-07
  0.4400000E+01  0.1601542E+03  0.5097244E+01 -0.9511909E-08 -0.2466284E-06  0.5543057E-05 -0.3857350E-05 -0.3102089E-09  0.1706718E-08 -0.3471110E+02 -0.2057052E+01  0.1413267E-07  0.6642121E-06
  0.4500000E+01  0.1601542E+03 -0.7318038E+01 -0.9511909E-08 -0.1576802E-06  0.5543057E-05  0.5510273E-05 -0.3102089E-09 -0.3542119E-07 -0.3471110E+02 -0.1376948E+01  0.1413267E-07  0.4101872E-06
  0.4600000E+01  0.1601542E+03 -0.8165811E+02 -0.9511909E-08  0.1372788E-07  0.5543057E-05  0.2276008E-04 -0.3102089E-09 -0.6540602E-07 -0.3471110E+02  0.9975178E+01  0.1413267E-07  0.3598492E-06
  0.4700000E+01  0.1601542E+03  0.1731042E+01 -0.9511909E-08  0.1908773E-06  0.5543057E-05  0.3413053E-04 -0.3102089E-09 -0.8231741E-07 -0.3471110E+02  0.3961408E+01  0.1413267E-07  0.9417217E-06
  0.4800000E+01  0.1601542E+03  0.5147048E+02 -0.9511909E-08  0.3021331E-06  0.5543057E-05  0.4658224E-04 -0.3102089E-09 -0.8494020E-07 -0.3471110E+02 -0.4455153E+01  0.1413267E-07  0.7182587E-06
  0.4900000E+01  0.1601542E+03  0.2492090E+02 -0.9511909E-08  0.3226015E-06  0.5543057E-05  0.5899727E-04 -0.3102089E-09 -0.7224914E-07 -0.3471110E+02 -0.4103350E+01  0.1413267E-07 -0.1214384E-05
  0.5000000E+01  0.1601542E+03  0.3087080E+02 -0.9511909E-08  0.2645223E-06  0.5543057E-05  0.6073375E-04 -0.3102089E-09 -0.4396477E-07 -0.3471110E+02 -0.5692848E+01  0.1413267E-07 -0.3770001E-05
  0.5100000E+01  0.1601542E+03 -0.3164823E+02 -0.9511909E-08  0.1614466E-06  0.5543057E-05  0.6335619E-04 -0.3102089E-09 -0.6760648E-08 -0.3471110E+02  0.1808007E+01  0.1413267E-07 -0.4354991E-05
  0.5200000E+01  0.1601542E+03 -0.3130244E+02 -0.9511909E-08  0.3090497E-07  0.5543057E-05  0.6107208E-04 -0.3102089E-09  0.2988413E-07 -0.3471110E+02  0.4388945E+01  0.1413267E-07 -0.1460357E-05
  0.5300000E+01  0.1601542E+03  0.1345836E+02 -0.9511909E-08 -0.9809548E-07  0.5543057E-05  0.5403653E-04 -0.3102089E-09  0.6030164E-07 -0.3471110E+02 -0.1742269E+00  0.1413267E-07  0.2336868E-05
  0.5400000E+01  0.1601542E+03  0.5293020E+01 -0.9511909E-08 -0.1793205E-06  0.5543057E-05  0.4883113E-04 -0.3102089E-09  0.7840799E-07 -0.3471110E+02 -0.3709581E+00  0.1413267E-07  0.4663062E-05
  0.5500000E+01  0.1601542E+03 -0.6030849E+01 -0.9511909E-08 -0.2197871E-06  0.5543057E-05  0.3744155E-04 -0.3102089E-09  0.7800394E-07 -0.3471110E+02  0.5540848E-01  0.1413267E-07  0.4783696E-05
  0.5600000E+01  0.1601542E+03 -0.3499640E+02 -0.9511909E-08 -0.2457265E-06  0.5543057E-05  0.2282574E-04 -0.3102089E-09  0.6146337E-07 -0.3471110E+02  0.4086812E+01  0.1413267E-07  0.1969426E-05
  0.5700000E+01  0.1601542E+03  0.4851349E+01 -0.9511909E-08 -0.2223062E-06  0.5543057E-05  0.1364033E-05 -0.3102089E-09  0.3505859E-07 -0.3471110E+02  0.1603493E+01  0.1413267E-07 -0.1113606E-05
  0.5800000E+01  0.1601542E+03  0.5472971E+02 -0.9511909E-08 -0.1299995E-06  0.5543057E-05 -0.2595551E-04 -0.3102089E-09 -0.4016343E-09 -0.3471110E+02 -0.5332910E+01  0.1413267E-07 -0.1338796E-05
  0.5900000E+01  0.1601542E+03  0.3632924E+02 -0.9511909E-08  0.1107253E-07  0.5543057E-05 -0.5260725E-04 -0.3102089E-09 -0.3983368E-07 -0.3471110E+02 -0.6829248E+01  0.1413267E-07  0.7717317E-07
  0.6000000E+01  0.1601542E+03 -0.3057150E+02 -0.9511909E-08  0.1951344E-06  0.5543057E-05 -0.7610504E-04 -0.3102089E-09 -0.7264923E-07 -0.3471110E+02  0.1578671E-01  0.1413267E-07  0.4993487E-06
  0.6100000E+01  0.1601542E+03 -0.6516015E+02 -0.9511909E-08  0.3290064E-06  0.5543057E-05 -0.9134543E-04 -0.3102089E-09 -0.9102605E-07 -0.3471110E+02  0.7796804E+01  0.1413267E-07 -0.2410489E-05
  0.6200000E+01  0.1601542E+03 -0.1472997E+02 -0.9511909E-08  0.3409245E-06  0.5543057E-05 -0.9607634E-04 -0.3102089E-09 -0.8863072E-07 -0.3471110E+02  0.5089010E+01  0.1413267E-07 -0.7468196E-05
  0.6300000E+01  0.1601542E+03  0.3000772E+02 -0.9511909E-08  0.2674313E-06  0.5543057E-05 -0.9088210E-04 -0.3102089E-09 -0.6388587E-07 -0.3471110E+02 -0.1346993E+01  0.1413267E-07 -0.8674314E-05
  0.6400000E+01  0.1601542E+03  0.2597623E+02 -0.9511909E-08  0.1269580E-06  0.5543057E-05 -0.8160298E-04 -0.3102089E-09 -0.2440084E-07 -0.3471110E+02 -0.3333368E+01  0.1413267E-07 -0.3667710E-05
  0.6500000E+01  0.1601542E+03  0.9476055E+01 -0.9511909E-08 -0.3954600E-07  0.5543057E-05 -0.7070910E-04 -0.3102089E-09  0.2032971E-07 -0.3471110E+02 -0.2079719E+01  0.1413267E-07  0.3274505E-05
  0.6600000E+01  0.1601542E+03  0.1649796E+02 -0.9511909E-08 -0.1860124E-06  0.5543057E-05 -0.5756419E-04 -0.3102089E-09  0.6213948E-07 -0.3471110E+02 -0.2950783E+01  0.1413267E-07  0.7345407E-05
  0.6700000E+01  0.1601542E+03  0.4379172E+01 -0.9511909E-08 -0.3216333E-06  0.5543057E-05 -0.4084492E-04 -0.3102089E-09  0.9131429E-07 -0.3471110E+02 -0.2465618E+01  0.1413267E-07  0.8217286E-05
  0.6800000E+01  0.1601542E+03 -0.4451565E+02 -0.9511909E-08 -0.4330153E-06  0.5543057E-05 -0.1876228E-04 -0.3102089E-09  0.1011924E-06 -0.3471110E+02  0.4128657E+01  0.1413267E-07  0.7770405E-05
  0.6900000E+01  0.1601542E+03 -0.4184681E+02 -0.9511909E-08 -0.4400828E-06  0.5543057E-05  0.3868922E-05 -0.3102089E-09  0.9271709E-07 -0.3471110E+02  0.6947694E+01  0.1413267E-07  0.5618680E-05
  0.7000000E+01  0.1601542E+03  0.1939991E+02 -0.9511909E-08 -0.2951998E-06  0.5543057E-05  0.2441818E-04 -0.3102089E-09  0.7098703E-07 -0.3471110E+02  0.5009655E+00  0.1413267E-07  0.1915780E-05
  0.7100000E+01  0.1601542E+03  0.4429732E+02 -0.9511909E-08 -0.7689466E-07  0.5543057E-05  0.4181156E-04 -0.3102089E-09  0.3862210E-07 -0.3471110E+02 -0.5043750E+01  0.1413267E-07 -0.1961030E-05
  0.7200000E+01  0.1601542E+03  0.8831985E+01 -0.9511909E-08  0.1378322E-06  0.5543057E-05  0.5303631E-04 -0.3102089E-09 -0.3064306E-08 -0.3471110E+02 -0.2723608E+01  0.1413267E-07 -0.5587054E-05
  0.7300000E+01  0.1601542E+03 -0.1488329E+02 -0.9511909E-08  0.3315726E-06  0.5543057E-05  0.5971506E-04 -0.3102089E-09 -0.4611963E-07 -0.3471110E+02  0.8982942E+00  0.1413267E-07 -0.7337757E-05
  0.7400000E+01  0.1601542E+03  0.6637827E+00 -0.9511909E-08  0.4759988E-06  0.5543057E-05  0.6380597E-04 -0.3102089E-09 -0.8154295E-07 -0.3471110E+02 -0.1641565E-02  0.1413267E-07 -0.5830812E-05
  0.7500000E+01  0.1601542E+03 -0.2031769E+01 -0.9511909E-08  0.5419964E-06  0.5543057E-05  0.6596794E-04 -0.3102089E-09 -0.1051976E-06 -0.3471110E+02  0.2479954E+00  0.1413267E-07 -0.2671996E-05
  0.7600000E+01  0.1601542E+03 -0.8120292E+01 -0.9511909E-08  0.5085258E-06  0.5543057E-05  0.6650449E-04 -0.3102089E-09 -0.1125005E-06 -0.3471110E+02  0.1159281E+01  0.1413267E-07 -0.7487368E-06
  0.7700000E+01  0.1601542E+03 -0.2319737E+01 -0.9511909E-08  0.3565753E-06  0.5543057E-05  0.6590106E-04 -0.3102089E-09 -0.9918539E-07 -0.3471110E+02  0.2159331E+00  0.1413267E-07 -0.3458460E-06
  0.7800000E+01  0.1601542E+03 -0.1159301E+02 -0.9511909E-08  0.8450223E-07  0.5543057E-05  0.6392340E-04 -0.3102089E-09 -0.6713553E-07 -0.3471110E+02  0.1121032E+01  0.1413267E-07  0.6083532E-06
  0.7900000E+01  0.1601542E+03 -0.1809721E+02 -0.9511909E-08 -0.2526891E-06  0.5543057E-05  0.5872798E-04 -0.3102089E-09 -0.2620380E-07 -0.3471110E+02  0.3154043E+01  0.1413267E-07  0.2814508E-05
  0.8000000E+01  0.1601542E+03  0.2289812E+02 -0.9511909E-08 -0.5490854E-06  0.5543057E-05  0.4655944E-04 -0.3102089E-09  0.1555205E-07 -0.3471110E+02 -0.9447862E+00  0.1413267E-07  0.4029215E-05
  0.8100000E+01  0.1601542E+03  0.5222716E+02 -0.9511909E-08 -0.6902683E-06  0.5543057E-05  0.3138425E-04 -0.3102089E-09  0.5479829E-07 -0.3471110E+02 -0.6806585E+01  0.1413267E-07  0.1854091E-05
  0.8200000E+01  0.1601542E+03  0.9746919E+01 -0.9511909E-08 -0.6340118E-06  0.5543057E-05  0.1899704E-04 -0.3102089E-09  0.8673310E-07 -0.3471110E+02 -0.4204877E+01  0.1413267E-07 -0.9131694E-06
  0.8300000E+01  0.1601542E+03 -0.4040289E+02 -0.9511909E-08 -0.4448761E-06  0.5543057E-05  0.5726768E-05 -0.3102089E-09  0.1058952E-06 -0.3471110E+02  0.2800518E+01  0.1413267E-07 -0.4827018E-06
  0.8400001E+01  0.1601542E+03 -0.4542868E+02 -0.9511909E-08 -0.2001141E-06  0.5543057E-05 -0.5432570E-05 -0.3102089E-09  0.1095198E-06 -0.3471110E+02  0.6407642E+01  0.1413267E-07  0.1089463E-05
  0.8500000E+01  0.1601542E+03 -0.1568541E+02 -0.9511909E-08  0.5860177E-07  0.5543057E-05 -0.1060579E-04 -0.3102089E-09  0.9530523E-07 -0.3471110E+02  0.4914681E+01  0.1413267E-07  0.8693892E-06
  0.8600000E+01  0.1601542E+03  0.3080392E+02 -0.9511909E-08  0.3125877E-06  0.5543057E-05 -0.2037400E-04 -0.3102089E-09  0.6380003E-07 -0.3471110E+02 -0.1116018E+01  0.1413267E-07 -0.3198186E-06
  0.8700000E+01  0.1601542E+03  0.4416265E+02 -0.9511909E-08  0.5283104E-06  0.5543057E-05 -0.3654633E-04 -0.3102089E-09  0.2013561E-07 -0.3471110E+02 -0.5618636E+01  0.1413267E-07 -0.2203619E-08
  0.8800000E+01  0.1601542E+03  0.6945946E+01 -0.9511909E-08  0.6595362E-06  0.5543057E-05 -0.5179469E-04 -0.3102089E-09 -0.2982395E-07 -0.3471110E+02 -0.3336689E+01  0.1413267E-07  0.1494026E-05
  0.8900001E+01  0.1601542E+03 -0.1410296E+02 -0.9511909E-08  0.6715588E-06  0.5543057E-05 -0.6789131E-04 -0.3102089E-09 -0.7565366E-07 -0.3471110E+02 -0.9122207E-01  0.1413267E-07  0.5551438E-06
  0.9000000E+01  0.1601542E+03 -0.1085755E+02 -0.9511909E-08  0.4983072E-06  0.5543057E-05 -0.8020482E-04 -0.3102089E-09 -0.1055004E-06 -0.3471110E+02  0.1036726E+01  0.1413267E-07 -0.2523763E-05
  0.9100000E+01  0.1601542E+03 -0.1572869E+02 -0.9511909E-08  0.1636168E-06  0.5543057E-05 -0.8230123E-04 -0.3102089E-09 -0.1141155E-06 -0.3471110E+02  0.2279559E+01  0.1413267E-07 -0.3718050E-05
  0.9200000E+01  0.1601542E+03 -0.1704278E+02 -0.9511909E-08 -0.1933251E-06  0.5543057E-05 -0.7643886E-04 -0.3102089E-09 -0.9994150E-07 -0.3471110E+02  0.2914221E+01  0.1413267E-07 -0.2484956E-05
  0.9300000E+01  0.1601542E+03  0.4346244E+01 -0.9511909E-08 -0.4498173E-06  0.5543057E-05 -0.6159893E-04 -0.3102089E-09 -0.6391468E-07 -0.3471110E+02  0.7347541E+00  0.1413267E-07 -0.3284881E-06
  0.9400001E+01  0.1601542E+03  0.2358646E+02 -0.9511909E-08 -0.5691659E-06  0.5543057E-05 -0.4267883E-04 -0.3102089E-09 -0.1326386E-07 -0.3471110E+02 -0.2185267E+01  0.1413267E-07  0.2644580E-05
  0.9500000E+01  0.1601542E+03  0.2035695E+02 -0.9511909E-08 -0.5874384E-06  0.5543057E-05 -0.2949656E-04 -0.3102089E-09  0.3870152E-07 -0.3471110E+02 -0.3208359E+01  0.1413267E-07  0.4630262E-05
  0.9600000E+01  0.1601542E+03 -0.6393734E+01 -0.9511909E-08 -0.5246457E-06  0.5543057E-05 -0.1729226E-04 -0.3102089E-09  0.7947764E-07 -0.3471110E+02 -0.6527539E+00  0.1413267E-07  0.3312303E-05
  0.9700000E+01  0.1601542E+03 -0.1579158E+02 -0.9511909E-08 -0.3692198E-06  0.5543057E-05 -0.5915992E-05 -0.3102089E-09  0.1008677E-06 -0.3471110E+02  0.1642071E+01  0.1413267E-07 -0.2149384E-06
  0.9800000E+01  0.1601542E+03  0.5140779E+01 -0.9511909E-08 -0.1157830E-06  0.5543057E-05  0.2417536E-05 -0.3102089E-09  0.9902492E-07 -0.3471110E+02  0.7836901E-01  0.1413267E-07 -0.3297260E-05
  0.9900001E+01  0.1601542E+03  0.5482443E+01 -0.9511909E-08  0.1814679E-06  0.5543057E-05  0.1437505E-04 -0.3102089E-09  0.7675926E-07 -0.3471110E+02 -0.6287832E+00  0.1413267E-07 -0.3838157E-05
Zone t="DoF    2",I=   100,F=POINT
  0.0000000E+00 -0.7909025E-08 -0.5338568E-06  0.1601541E+03  0.5064677E+04 -0.1097435E-06 -0.5049337E-06  0.3471110E+02  0.6592680E+03 -0.9345820E-09 -0.4951539E-07  0.6585838E-06  0.1623968E-04
  0.1000000E+00 -0.7909025E-08 -0.4394263E-06  0.1601541E+03  0.3689497E+04 -0.1097435E-06 -0.2753349E-06  0.3471110E+02  0.5161699E+03 -0.9345820E-09 -0.5101311E-07  0.6585838E-06  0.1455437E-04
  0.2000000E+00 -0.7909025E-08 -0.2443213E-06  0.1601541E+03  0.9609467E+03 -0.1097435E-06  0.3604198E-06  0.3471110E+02  0.1926726E+03 -0.9345820E-09 -0.4917137E-07  0.6585838E-06  0.5798182E-05
  0.3000000E+00 -0.7909025E-08 -0.4967400E-07  0.1601541E+03 -0.1187057E+04 -0.1097435E-06  0.1165024E-05  0.3471110E+02 -0.1249295E+03 -0.9345820E-09 -0.3523965E-07  0.6585838E-06 -0.5388386E-05
  0.4000000E+00 -0.7909025E-08  0.1370560E-06  0.1601541E+03 -0.2274808E+04 -0.1097435E-06  0.1745014E-05  0.3471110E+02 -0.3262268E+03 -0.9345820E-09 -0.9488055E-08  0.6585838E-06 -0.1188856E-04
  0.5000000E+00 -0.7909025E-08  0.3007933E-06  0.1601541E+03 -0.2483582E+04 -0.1097435E-06  0.1811306E-05  0.3471110E+02 -0.3863669E+03 -0.9345820E-09  0.1984519E-07  0.6585838E-06 -0.1377626E-04
  0.6000000E+00 -0.7909025E-08  0.3877014E-06  0.1601541E+03 -0.2087425E+04 -0.1097435E-06  0.1281088E-05  0.3471110E+02 -0.3342407E+03 -0.9345820E-09  0.4624215E-07  0.6585838E-06 -0.6634215E-05
  0.7000000E+00 -0.7909025E-08  0.3475805E-06  0.1601541E+03 -0.1387343E+04 -0.1097435E-06  0.1958413E-06  0.3471110E+02 -0.2216783E+03 -0.9345820E-09  0.6745908E-07  0.6585838E-06  0.3975847E-05
  0.8000000E+00 -0.7909025E-08  0.2065922E-06  0.1601541E+03 -0.6193636E+03 -0.1097435E-06 -0.1162849E-05  0.3471110E+02 -0.9457501E+02 -0.9345820E-09  0.7956049E-07  0.6585838E-06  0.5398611E-05
  0.9000000E+00 -0.7909025E-08  0.6067110E-07  0.1601541E+03  0.5208569E+02 -0.1097435E-06 -0.2331285E-05  0.3471110E+02  0.1537962E+02 -0.9345820E-09  0.8025338E-07  0.6585838E-06  0.1674223E-05
  0.1000000E+01 -0.7909025E-08 -0.4827046E-07  0.1601541E+03  0.5310807E+03 -0.1097435E-06 -0.2919481E-05  0.3471110E+02  0.9076275E+02 -0.9345820E-09  0.6954412E-07  0.6585838E-06 -0.1491357E-05
  0.1100000E+01 -0.7909025E-08 -0.1460167E-06  0.1601541E+03  0.7788902E+03 -0.1097435E-06 -0.2749220E-05  0.3471110E+02  0.1265872E+03 -0.9345820E-09  0.4523452E-07  0.6585838E-06 -0.4022093E-05
  0.1200000E+01 -0.7909025E-08 -0.1687798E-06  0.1601541E+03  0.8106283E+03 -0.1097435E-06 -0.1935103E-05  0.3471110E+02  0.1274529E+03 -0.9345820E-09  0.8751102E-08  0.6585838E-06 -0.6593715E-05
  0.1300000E+01 -0.7909025E-08 -0.6686648E-07  0.1601541E+03  0.6781794E+03 -0.1097435E-06 -0.8063223E-06  0.3471110E+02  0.1036638E+03 -0.9345820E-09 -0.3361198E-07  0.6585838E-06 -0.7049020E-05
  0.1400000E+01 -0.7909025E-08  0.6934857E-07  0.1601541E+03  0.4574012E+03 -0.1097435E-06  0.3312306E-06  0.3471110E+02  0.6737762E+02 -0.9345820E-09 -0.7284879E-07  0.6585838E-06  0.8131077E-06
  0.1500000E+01 -0.7909025E-08  0.1685859E-06  0.1601541E+03  0.2218983E+03 -0.1097435E-06  0.1223542E-05  0.3471110E+02  0.3035516E+02 -0.9345820E-09 -0.1021227E-06  0.6585838E-06  0.1130582E-04
  0.1600000E+01 -0.7909025E-08  0.1944493E-06  0.1601541E+03  0.3540460E+02 -0.1097435E-06  0.1583899E-05  0.3471110E+02  0.1639934E+01 -0.9345820E-09 -0.1188568E-06  0.6585838E-06  0.1249155E-04
  0.1700000E+01 -0.7909025E-08  0.1287749E-06  0.1601541E+03 -0.6880331E+02 -0.1097435E-06  0.1384990E-05  0.3471110E+02 -0.1487859E+02 -0.9345820E-09 -0.1155370E-06  0.6585838E-06  0.6720389E-05
  0.1800000E+01 -0.7909025E-08 -0.2065595E-07  0.1601541E+03 -0.1044753E+03 -0.1097435E-06  0.9428146E-06  0.3471110E+02 -0.2086459E+02 -0.9345820E-09 -0.8672458E-07  0.6585838E-06  0.1774225E-05
  0.1900000E+01 -0.7909025E-08 -0.2446839E-06  0.1601541E+03 -0.9440034E+02 -0.1097435E-06  0.5166311E-06  0.3471110E+02 -0.1939285E+02 -0.9345820E-09 -0.3841676E-07  0.6585838E-06 -0.3034279E-05
  0.2000000E+01 -0.7909025E-08 -0.4482087E-06  0.1601541E+03 -0.9079546E+02 -0.1097435E-06  0.2125015E-06  0.3471110E+02 -0.1594112E+02 -0.9345820E-09  0.1876743E-07  0.6585838E-06 -0.6670780E-05
  0.2100000E+01 -0.7909025E-08 -0.5073620E-06  0.1601541E+03 -0.1170469E+03 -0.1097435E-06  0.1884267E-06  0.3471110E+02 -0.1538233E+02 -0.9345820E-09  0.7463242E-07  0.6585838E-06 -0.6588280E-05
  0.2200000E+01 -0.7909025E-08 -0.4106740E-06  0.1601541E+03 -0.1665667E+03 -0.1097435E-06  0.4991323E-06  0.3471110E+02 -0.1954097E+02 -0.9345820E-09  0.1182192E-06  0.6585838E-06 -0.3679843E-05
  0.2300000E+01 -0.7909025E-08 -0.2177690E-06  0.1601541E+03 -0.1857144E+03 -0.1097435E-06  0.8992300E-06  0.3471110E+02 -0.2277106E+02 -0.9345820E-09  0.1384360E-06  0.6585838E-06 -0.1450282E-05
  0.2400000E+01 -0.7909025E-08  0.2641537E-07  0.1601541E+03 -0.1294870E+03 -0.1097435E-06  0.1135977E-05  0.3471110E+02 -0.1881725E+02 -0.9345820E-09  0.1303694E-06  0.6585838E-06 -0.8197446E-06
  0.2500000E+01 -0.7909025E-08  0.3070663E-06  0.1601541E+03 -0.1024142E+02 -0.1097435E-06  0.1155176E-05  0.3471110E+02 -0.6347027E+01 -0.9345820E-09  0.9704878E-07  0.6585838E-06 -0.1491542E-05
  0.2600000E+01 -0.7909025E-08  0.5816223E-06  0.1601541E+03  0.8216933E+02 -0.1097435E-06  0.7996666E-06  0.3471110E+02  0.7696007E+01 -0.9345820E-09  0.4457291E-07  0.6585838E-06 -0.5819401E-06
  0.2700000E+01 -0.7909025E-08  0.7572150E-06  0.1601541E+03  0.7433101E+02 -0.1097435E-06 -0.4490990E-07  0.3471110E+02  0.1314962E+02 -0.9345820E-09 -0.1560598E-07  0.6585838E-06  0.2779170E-05
  0.2800000E+01 -0.7909025E-08  0.7402184E-06  0.1601541E+03  0.2928993E+01 -0.1097435E-06 -0.1080641E-05  0.3471110E+02  0.7232734E+01 -0.9345820E-09 -0.6826655E-07  0.6585838E-06  0.6489563E-05
  0.2900000E+01 -0.7909025E-08  0.5301656E-06  0.1601541E+03 -0.8866555E+01 -0.1097435E-06 -0.1918011E-05  0.3471110E+02  0.1316384E+01 -0.9345820E-09 -0.1026217E-06  0.6585838E-06  0.6732886E-05
  0.3000000E+01 -0.7909025E-08  0.2059962E-06  0.1601541E+03  0.7125574E+02 -0.1097435E-06 -0.2431012E-05  0.3471110E+02  0.6494927E+01 -0.9345820E-09 -0.1179300E-06  0.6585838E-06  0.2659082E-05
  0.3100000E+01 -0.7909025E-08 -0.1946688E-06  0.1601541E+03  0.9841771E+02 -0.1097435E-06 -0.2516161E-05  0.3471110E+02  0.1226822E+02 -0.9345820E-09 -0.1137011E-06  0.6585838E-06 -0.8436358E-06
  0.3200000E+01 -0.7909025E-08 -0.6154569E-06  0.1601541E+03  0.4775286E+00 -0.1097435E-06 -0.1986985E-05  0.3471110E+02  0.3784177E+01 -0.9345820E-09 -0.8524053E-07  0.6585838E-06 -0.2421708E-05
  0.3300000E+01 -0.7909025E-08 -0.9194825E-06  0.1601541E+03 -0.6043794E+02 -0.1097435E-06 -0.9824307E-06  0.3471110E+02 -0.7499533E+01 -0.9345820E-09 -0.3650051E-07  0.6585838E-06 -0.4361284E-05
  0.3400000E+01 -0.7909025E-08 -0.9945373E-06  0.1601541E+03  0.2466268E+02 -0.1097435E-06  0.1032228E-06  0.3471110E+02 -0.1735952E+01 -0.9345820E-09  0.1635423E-07  0.6585838E-06 -0.5474578E-05
  0.3500000E+01 -0.7909025E-08 -0.8077633E-06  0.1601541E+03  0.7396037E+02 -0.1097435E-06  0.1092773E-05  0.3471110E+02  0.7982462E+01 -0.9345820E-09  0.6014785E-07  0.6585838E-06 -0.4722091E-05
  0.3600000E+01 -0.7909025E-08 -0.3943445E-06  0.1601541E+03 -0.3107082E+02 -0.1097435E-06  0.1854605E-05  0.3471110E+02 -0.5305147E+00 -0.9345820E-09  0.8922804E-07  0.6585838E-06 -0.1587563E-05
  0.3700000E+01 -0.7909025E-08  0.1329304E-06  0.1601541E+03 -0.7563689E+02 -0.1097435E-06  0.2102554E-05  0.3471110E+02 -0.8888037E+01 -0.9345820E-09  0.9502627E-07  0.6585838E-06  0.2837140E-05
  0.3800000E+01 -0.7909025E-08  0.5972965E-06  0.1601541E+03  0.2008933E+02 -0.1097435E-06  0.1799007E-05  0.3471110E+02  0.7302332E+00 -0.9345820E-09  0.7723008E-07  0.6585838E-06  0.1831544E-05
  0.3900000E+01 -0.7909025E-08  0.8546381E-06  0.1601541E+03 -0.7010453E+01 -0.1097435E-06  0.1208886E-05  0.3471110E+02  0.1954231E+00 -0.9345820E-09  0.4581680E-07  0.6585838E-06  0.7253044E-06
  0.4000000E+01 -0.7909025E-08  0.8695917E-06  0.1601541E+03 -0.8222029E+02 -0.1097435E-06  0.5023736E-06  0.3471110E+02 -0.1060574E+02 -0.9345820E-09  0.1087835E-07  0.6585838E-06  0.4443096E-05
  0.4100000E+01 -0.7909025E-08  0.6759115E-06  0.1601541E+03  0.1901450E+02 -0.1097435E-06 -0.2290836E-06  0.3471110E+02 -0.1368019E+01 -0.9345820E-09 -0.1761976E-07  0.6585838E-06  0.5383267E-05
  0.4200000E+01 -0.7909025E-08  0.3581576E-06  0.1601541E+03  0.8243851E+02 -0.1097435E-06 -0.6713890E-06  0.3471110E+02  0.9877778E+01 -0.9345820E-09 -0.3577309E-07  0.6585838E-06  0.1707764E-05
  0.4300000E+01 -0.7909025E-08  0.2860432E-07  0.1601541E+03 -0.1071761E+01 -0.1097435E-06 -0.6123622E-06  0.3471110E+02  0.2477807E+01 -0.9345820E-09 -0.4492667E-07  0.6585838E-06  0.8289368E-06
  0.4400000E+01 -0.7909025E-08 -0.2409143E-06  0.1601541E+03  0.5097123E+01 -0.1097435E-06 -0.2905752E-06  0.3471110E+02  0.2057027E+01 -0.9345820E-09 -0.4374415E-07  0.6585838E-06 -0.3917033E-05
  0.4500000E+01 -0.7909025E-08 -0.4418549E-06  0.1601541E+03 -0.7318227E+01 -0.1097435E-06  0.2725209E-07  0.3471110E+02  0.1376898E+01 -0.9345820E-09 -0.3291756E-07  0.6585838E-06 -0.6972316E-05
  0.4600000E+01 -0.7909025E-08 -0.5712469E-06  0.1601541E+03 -0.8165819E+02 -0.1097435E-06  0.3740153E-06  0.3471110E+02 -0.9975183E+01 -0.9345820E-09 -0.2018731E-07  0.6585838E-06  0.4104998E-06
  0.4700000E+01 -0.7909025E-08 -0.5626308E-06  0.1601541E+03  0.1731040E+01 -0.1097435E-06  0.6692825E-06  0.3471110E+02 -0.3961398E+01 -0.9345820E-09 -0.1304833E-07  0.6585838E-06  0.8304966E-06
  0.4800000E+01 -0.7909025E-08 -0.4140177E-06  0.1601541E+03  0.5147057E+02 -0.1097435E-06  0.6280395E-06  0.3471110E+02  0.4455141E+01 -0.9345820E-09 -0.1105932E-07  0.6585838E-06  0.8259870E-06
  0.4900000E+01 -0.7909025E-08 -0.2014266E-06  0.1601541E+03  0.2492106E+02 -0.1097435E-06  0.2494023E-06  0.3471110E+02  0.4103368E+01 -0.9345820E-09 -0.1144007E-07  0.6585838E-06  0.3834861E-05
  0.5000000E+01 -0.7909025E-08  0.5806928E-07  0.1601541E+03  0.3087093E+02 -0.1097435E-06 -0.2706716E-06  0.3471110E+02  0.5692856E+01 -0.9345820E-09 -0.1342570E-07  0.6585838E-06 -0.1532715E-05