VARIABLES="X" "Y" "Z" "NX" "NY" "NZ" "A"
 ZONE N=        1056 , E=         396  , F=FEPOINT,ET=QUADRILATERAL
   0.4987261E+00   0.3566960E-01  -0.2500000E+00   0.0000000E+00   0.0000000E+00   0.0000000E+00   0.0000000E+00
   0.4987261E+00   0.3566960E-01  -0.1666667E+00   0.0000000E+00   0.0000000E+00   0.0000000E+00   0.0000000E+00
   0.4987261E+00   0.3566960E-01  -0.8333330E-01   0.0000000E+00   0.0000000E+00   0.0000000E+00   0.0000000E+00
   0.4987261E+00   0.3566960E-01   0.0000000E+00   0.0000000E+00   0.0000000E+00   0.0000000E+00   0.0000000E+00
   0.5000000E+00   0.0000000E+00  -0.2500000E+00   0.0000000E+00   0.0000000E+00   0.0000000E+00   0.0000000E+00
   0.5000000E+00   0.0000000E+00  -0.1666667E+00   0.0000000E+00   0.0000000E+00   0.0000000E+00   0.0000000E+00
   0.5000000E+00   0.0000000E+00  -0.8333330E-01   0.0000000E+00   0.0000000E+00   0.0000000E+00   0.0000000E+00
   0.5000000E+00   0.0000000E+00   0.0000000E+00   0.0000000E+00   0.0000000E+00   0.0000000E+00   0.0000000E+00
   0.4949107E+00   0.7115740E-01  -0.2500000E+00   0.0000000E+00   0.0000000E+00   0.0000000E+00   0.0000000E+00
   0.4949107E+00   0.7115740E-01  -0.1666667E+00   0.0000000E+00   0.0000000E+00   0.0000000E+00   0.0000000E+00
   0.4949107E+00   0.7115740E-01  -0.8333330E-01   0.0000000E+00   0.0000000E+00   0.0000000E+00   0.0000000E+00
   0.4949107E+00   0.7115740E-01   0.0000000E+00   0.0000000E+00   0.0000000E+00   0.0000000E+00   0.0000000E+00
   0.4987261E+00   0.3566960E-01  -0.2500000E+00   0.0000000E+00   0.0000000E+00   0.0000000E+00   0.0000000E+00
   0.4987261E+00   0.3566960E-01  -0.1666667E+00   0.0000000E+00   0.0000000E+00   0.0000000E+00   0.0000000E+00
   0.4987261E+00   0.3566960E-01  -0.8333330E-01   0.0000000E+00   0.0000000E+00   0.0000000E+00   0.0000000E+00
   0.4987261E+00   0.3566960E-01   0.0000000E+00   0.0000000E+00   0.0000000E+00   0.0000000E+00   0.0000000E+00
   0.4885734E+00   0.1062826E+00  -0.2500000E+00   0.0000000E+00   0.0000000E+00   0.0000000E+00   0.0000000E+00
   0.4885734E+00   0.1062826E+00  -0.1666667E+00   0.0000000E+00   0.0000000E+00   0.0000000E+00   0.0000000E+00
   0.4885734E+00   0.1062826E+00  -0.8333330E-01   0.0000000E+00   0.0000000E+00   0.0000000E+00   0.0000000E+00
   0.4885734E+00   0.1062826E+00   0.0000000E+00   0.0000000E+00   0.0000000E+00   0.0000000E+00   0.0000000E+00
   0.4949107E+00   0.7115740E-01  -0.2500000E+00   0.0000000E+00   0.0000000E+00   0.0000000E+00   0.0000000E+00
   0.4949107E+00   0.7115740E-01  -0.1666667E+00   0.0000000E+00   0.0000000E+00   0.0000000E+00   0.0000000E+00
   0.4949107E+00   0.7115740E-01  -0.8333330E-01   0.0000000E+00   0.0000000E+00   0.0000000E+00   0.0000000E+00
   0.4949107E+00   0.7115740E-01   0.0000000E+00   0.0000000E+00   0.0000000E+00   0.0000000E+00   0.0000000E+00
   0.4797465E+00   0.1408663E+00  -0.2500000E+00   0.0000000E+00   0.0000000E+00   0.0000000E+00   0.0000000E+00
   0.4797465E+00   0.1408663E+00  -0.1666667E+00   0.0000000E+00   0.0000000E+00   0.0000000E+00   0.0000000E+00
   0.4797465E+00   0.1408663E+00  -0.8333330E-01   0.0000000E+00   0.0000000E+00   0.0000000E+00   0.0000000E+00
   0.4797465E+00   0.1408663E+00   0.0000000E+00   0.0000000E+00   0.0000000E+00   0.0000000E+00   0.0000000E+00
   0.4885734E+00   0.1062826E+00  -0.2500000E+00   0.0000000E+00   0.0000000E+00   0.0000000E+00   0.0000000E+00
   0.4885734E+00   0.1062826E+00  -0.1666667E+00   0.0000000E+00   0.0000000E+00   0.0000000E+00   0.0000000E+00
   0.4885734E+00   0.1062826E+00  -0.8333330E-01   0.0000000E+00   0.0000000E+00   0.0000000E+00   0.0000000E+00
   0.4885734E+00   0.1062826E+00   0.0000000E+00   0.0000000E+00   0.0000000E+00   0.0000000E+00   0.0000000E+00
   0.4684749E+00   0.1747321E+00  -0.2500000E+00   0.0000000E+00   0.0000000E+00   0.0000000E+00   0.0000000E+00
   0.4684749E+00   0.1747321E+00  -0.1666667E+00   0.0000000E+00   0.0000000E+00   0.0000000E+00   0.0000000E+00
   0.4684749E+00   0.1747321E+00  -0.8333330E-01   0.0000000E+00   0.0000000E+00   0.0000000E+00   0.0000000E+00
   0.4684749E+00   0.1747321E+00   0.0000000E+00   0.0000000E+00   0.0000000E+00   0.0000000E+00   0.0000000E+00
   0.4797465E+00   0.1408663E+00  -0.2500000E+00   0.0000000E+00   0.0000000E+00   0.0000000E+00   0.0000000E+00
   0.4797465E+00   0.1408663E+00  -0.1666667E+00   0.0000000E+00   0.0000000E+00   0.0000000E+00   0.0000000E+00
   0.4797465E+00   0.1408663E+00  -0.8333330E-01   0.0000000E+00   0.0000000E+00   0.0000000E+00   0.0000000E+00
   0.4797465E+00   0.1408663E+00   0.0000000E+00   0.0000000E+00   0.0000000E+00   0.0000000E+00   0.0000000E+00
   0.4548160E+00   0.2077075E+00  -0.2500000E+00   0.0000000E+00   0.0000000E+00   0.0000000E+00   0.0000000E+00
   0.4548160E+00   0.2077075E+00  -0.1666667E+00   0.0000000E+00   0.0000000E+00   0.0000000E+00   0.0000000E+00
   0.4548160E+00   0.2077075E+00  -0.8333330E-01   0.0000000E+00   0.0000000E+00   0.0000000E+00   0.0000000E+00
   0.4548160E+00   0.2077075E+00   0.0000000E+00   0.0000000E+00   0.0000000E+00   0.0000000E+00   0.0000000E+00
   0.4684749E+00   0.1747321E+00  -0.2500000E+00   0.0000000E+00   0.0000000E+00   0.0000000E+00   0.0000000E+00
   0.4684749E+00   0.1747321E+00  -0.1666667E+00   0.0000000E+00   0.0000000E+00   0.0000000E+00   0.0000000E+00
   0.4684749E+00   0.1747321E+00  -0.8333330E-01   0.0000000E+00   0.0000000E+00   0.0000000E+00   0.0000000E+00
   0.4684749E+00   0.1747321E+00   0.0000000E+00   0.0000000E+00   0.0000000E+00   0.0000000E+00   0.0000000E+00
   0.4388395E+00   0.2396245E+00  -0.2500000E+00   0.0000000E+00   0.0000000E+00   0.0000000E+00   0.0000000E+00
   0.4388395E+00   0.2396245E+00  -0.1666667E+00   0.0000000E+00   0.0000000E+00   0.0000000E+00   0.0000000E+00
   0.4388395E+00   0.2396245E+00  -0.8333330E-01   0.0000000E+00   0.0000000E+00   0.0000000E+00   0.0000000E+00
   0.4388395E+00   0.2396245E+00   0.0000000E+00   0.0000000E+00   0.0000000E+00   0.0000000E+00   0.0000000E+00
   0.4548160E+00   0.2077075E+00  -0.2500000E+00   0.0000000E+00   0.0000000E+00   0.0000000E+00   0.0000000E+00
   0.4548160E+00   0.2077075E+00  -0.1666667E+00   0.0000000E+00   0.0000000E+00   0.0000000E+00   0.0000000E+00
   0.4548160E+00   0.2077075E+00  -0.8333330E-01   0.0000000E+00   0.0000000E+00   0.0000000E+00   0.0000000E+00
   0.4548160E+00   0.2077075E+00   0.0000000E+00   0.0000000E+00   0.0000000E+00   0.0000000E+00   0.0000000E+00
   0.4206268E+00   0.2703204E+00  -0.2500000E+00   0.0000000E+00   0.0000000E+00   0.0000000E+00   0.0000000E+00
   0.4206268E+00   0.2703204E+00  -0.1666667E+00   0.0000000E+00   0.0000000E+00   0.0000000E+00   0.0000000E+00
   0.4206268E+00   0.2703204E+00  -0.8333330E-01   0.0000000E+00   0.0000000E+00   0.0000000E+00   0.0000000E+00
   0.4206268E+00   0.2703204E+00   0.0000000E+00   0.0000000E+00   0.0000000E+00   0.0000000E+00   0.0000000E+00
   0.4388395E+00   0.2396245E+00  -0.2500000E+00   0.0000000E+00   0.0000000E+00   0.0000000E+00   0.0000000E+00
   0.4388395E+00   0.2396245E+00  -0.1666667E+00   0.0000000E+00   0.0000000E+00   0.0000000E+00   0.0000000E+00
   0.4388395E+00   0.2396245E+00  -0.8333330E-01   0.0000000E+00   0.0000000E+00   0.0000000E+00   0.0000000E+00
   0.4388395E+00   0.2396245E+00   0.0000000E+00   0.0000000E+00   0.0000000E+00   0.0000000E+00   0.0000000E+00
   0.4002706E+00   0.2996388E+00  -0.2500000E+00   0.0000000E+00   0.0000000E+00   0.0000000E+00   0.0000000E+00
   0.4002706E+00   0.2996388E+00  -0.1666667E+00   0.0000000E+00   0.0000000E+00   0.0000000E+00   0.0000000E+00
   0.4002706E+00   0.2996388E+00  -0.8333330E-01   0.0000000E+00   0.0000000E+00   0.0000000E+00   0.0000000E+00
   0.4002706E+00   0.2996388E+00   0.0000000E+00   0.0000000E+00   0.0000000E+00   0.0000000E+00   0.0000000E+00
   0.4206268E+00   0.2703204E+00  -0.2500000E+00   0.0000000E+00   0.0000000E+00   0.0000000E+00   0.0000000E+00
   0.4206268E+00   0.2703204E+00  -0.1666667E+00   0.0000000E+00   0.0000000E+00   0.0000000E+00   0.0000000E+00
   0.4206268E+00   0.2703204E+00  -0.8333330E-01   0.0000000E+00   0.0000000E+00   0.0000000E+00   0.0000000E+00
   0.4206268E+00   0.2703204E+00   0.0000000E+00   0.0000000E+00   0.0000000E+00   0.0000000E+00   0.0000000E+00
   0.3778748E+00   0.3274304E+00  -0.2500000E+00   0.0000000E+00   0.0000000E+00   0.0000000E+00   0.0000000E+00
   0.3778748E+00   0.3274304E+00  -0.1666667E+00   0.0000000E+00   0.0000000E+00   0.0000000E+00   0.0000000E+00
   0.3778748E+00   0.3274304E+00  -0.8333330E-01   0.0000000E+00   0.0000000E+00   0.0000000E+00   0.0000000E+00
   0.3778748E+00   0.3274304E+00   0.0000000E+00   0.0000000E+00   0.0000000E+00   0.0000000E+00   0.0000000E+00
   0.4002706E+00   0.2996388E+00  -0.2500000E+00   0.0000000E+00   0.0000000E+00   0.0000000E+00   0.0000000E+00
   0.4002706E+00   0.2996388E+00  -0.1666667E+00   0.0000000E+00   0.0000000E+00   0.0000000E+00   0.0000000E+00
   0.4002706E+00   0.2996388E+00  -0.8333330E-01   0.0000000E+00   0.0000000E+00   0.0000000E+00   0.0000000E+00
   0.4002706E+00   0.2996388E+00   0.0000000E+00   0.0000000E+00   0.0000000E+00   0.0000000E+00   0.0000000E+00
   0.3535534E+00   0.3535534E+00  -0.2500000E+00   0.0000000E+00   0.0000000E+00   0.0000000E+00   0.0000000E+00
   0.3535534E+00   0.3535534E+00  -0.1666667E+00   0.0000000E+00   0.0000000E+00   0.0000000E+00   0.0000000E+00
   0.3535534E+00   0.3535534E+00  -0.8333330E-01   0.0000000E+00   0.0000000E+00   0.0000000E+00   0.0000000E+00
   0.3535534E+00   0.3535534E+00   0.0000000E+00   0.0000000E+00   0.0000000E+00   0.0000000E+00   0.0000000E+00
   0.3778748E+00   0.3274304E+00  -0.2500000E+00   0.0000000E+00   0.0000000E+00   0.0000000E+00   0.0000000E+00
   0.3778748E+00   0.3274304E+00  -0.1666667E+00   0.0000000E+00   0.0000000E+00   0.0000000E+00   0.0000000E+00
   0.3778748E+00   0.3274304E+00  -0.8333330E-01   0.0000000E+00   0.0000000E+00   0.0000000E+00   0.0000000E+00
   0.3778748E+00   0.3274304E+00   0.0000000E+00   0.0000000E+00   0.0000000E+00   0.0000000E+00   0.0000000E+00
   0.3274304E+00   0.3778748E+00  -0.2500000E+00   0.0000000E+00   0.0000000E+00   0.0000000E+00   0.0000000E+00
   0.3274304E+00   0.3778748E+00  -0.1666667E+00   0.0000000E+00   0.0000000E+00   0.0000000E+00   0.0000000E+00
   0.3274304E+00   0.3778748E+00  -0.8333330E-01   0.0000000E+00   0.0000000E+00   0.0000000E+00   0.0000000E+00
   0.3274304E+00   0.3778748E+00   0.0000000E+00   0.0000000E+00   0.0000000E+00   0.0000000E+00   0.0000000E+00
   0.3535534E+00   0.3535534E+00  -0.2500000E+00   0.0000000E+00   0.0000000E+00   0.0000000E+00   0.0000000E+00
   0.3535534E+00   0.3535534E+00  -0.1666667E+00   0.0000000E+00   0.0000000E+00   0.0000000E+00   0.0000000E+00
   0.3535534E+00   0.3535534E+00  -0.8333330E-01   0.0000000E+00   0.0000000E+00   0.0000000E+00   0.0000000E+00
   0.3535534E+00   0.3535534E+00   0.0000000E+00   0.0000000E+00   0.0000000E+00   0.0000000E+00   0.0000000E+00
   0.2996388E+00   0.4002706E+00  -0.2500000E+00   0.0000000E+00   0.0000000E+00   0.0000000E+00   0.0000000E+00
   0.2996388E+00   0.4002706E+00  -0.1666667E+00   0.0000000E+00   0.0000000E+00   0.0000000E+00   0.0000000E+00
   0.2996388E+00   0.4002706E+00  -0.8333330E-01   0.0000000E+00   0.0000000E+00   0.0000000E+00   0.0000000E+00
   0.2996388E+00   0.4002706E+00   0.0000000E+00   0.0000000E+00   0.0000000E+00   0.0000000E+00   0.0000000E+00
   0.3274304E+00   0.3778748E+00  -0.2500000E+00   0.0000000E+00   0.0000000E+00   0.0000000E+00   0.0000000E+00
   0.3274304E+00   0.3778748E+00  -0.1666667E+00   0.0000000E+00   0.0000000E+00   0.0000000E+00   0.0000000E+00
   0.3274304E+00   0.3778748E+00  -0.8333330E-01   0.0000000E+00   0.0000000E+00   0.0000000E+00   0.0000000E+00
   0.3274304E+00   0.3778748E+00   0.0000000E+00   0.0000000E+00   0.0000000E+00   0.0000000E+00   0.0000000E+00
   0.2703204E+00   0.4206268E+00  -0.2500000E+00   0.0000000E+00   0.0000000E+00   0.0000000E+00   0.0000000E+00
   0.2703204E+00   0.4206268E+00  -0.1666667E+00   0.0000000E+00   0.0000000E+00   0.0000000E+00   0.0000000E+00
   0.2703204E+00   0.4206268E+00  -0.8333330E-01   0.0000000E+00   0.0000000E+00   0.0000000E+00   0.0000000E+00
   0.2703204E+00   0.4206268E+00   0.0000000E+00   0.0000000E+00   0.0000000E+00   0.0000000E+00   0.0000000E+00
   0.2996388E+00   0.4002706E+00  -0.2500000E+00   0.0000000E+00   0.0000000E+00   0.0000000E+00   0.0000000E+00
   0.2996388E+00   0.4002706E+00  -0.1666667E+00   0.0000000E+00   0.0000000E+00   0.0000000E+00   0.0000000E+00
   0.2996388E+00   0.4002706E+00  -0.8333330E-01   0.0000000E+00   0.0000000E+00   0.0000000E+00   0.0000000E+00
   0.2996388E+00   0.4002706E+00   0.0000000E+00   0.0000000E+00   0.0000000E+00   0.0000000E+00   0.0000000E+00
   0.2396245E+00   0.4388395E+00  -0.2500000E+00   0.0000000E+00   0.0000000E+00   0.0000000E+00   0.0000000E+00
   0.2396245E+00   0.4388395E+00  -0.1666667E+00   0.0000000E+00   0.0000000E+00   0.0000000E+00   0.0000000E+00
   0.2396245E+00   0.4388395E+00  -0.8333330E-01   0.0000000E+00   0.0000000E+00   0.0000000E+00   0.0000000E+00
   0.2396245E+00   0.4388395E+00   0.0000000E+00   0.0000000E+00   0.0000000E+00   0.0000000E+00   0.0000000E+00
   0.2703204E+00   0.4206268E+00  -0.2500000E+00   0.0000000E+00   0.0000000E+00   0.0000000E+00   0.0000000E+00
   0.2703204E+00   0.4206268E+00  -0.1666667E+00   0.0000000E+00   0.0000000E+00   0.0000000E+00   0.0000000E+00
   0.2703204E+00   0.4206268E+00  -0.8333330E-01   0.0000000E+00   0.0000000E+00   0.0000000E+00   0.0000000E+00
   0.2703204E+00   0.4206268E+00   0.0000000E+00   0.0000000E+00   0.0000000E+00   0.0000000E+00   0.0000000E+00
   0.2077075E+00   0.4548160E+00  -0.2500000E+00   0.0000000E+00   0.0000000E+00   0.0000000E+00   0.0000000E+00
   0.2077075E+00   0.4548160E+00  -0.1666667E+00   0.0000000E+00   0.0000000E+00   0.0000000E+00   0.0000000E+00
   0.2077075E+00   0.4548160E+00  -0.8333330E-01   0.0000000E+00   0.0000000E+00   0.0000000E+00   0.0000000E+00
   0.2077075E+00   0.4548160E+00   0.0000000E+00   0.0000000E+00   0.0000000E+00   0.0000000E+00   0.0000000E+00
   0.2396245E+00   0.4388395E+00  -0.2500000E+00   0.0000000E+00   0.0000000E+00   0.0000000E+00   0.0000000E+00
   0.2396245E+00   0.4388395E+00  -0.1666667E+00   0.0000000E+00   0.0000000E+00   0.0000000E+00   0.0000000E+00
   0.2396245E+00   0.4388395E+00  -0.8333330E-01   0.0000000E+00   0.0000000E+00   0.0000000E+00   0.0000000E+00
   0.2396245E+00   0.4388395E+00   0.0000000E+00   0.0000000E+00   0.0000000E+00   0.0000000E+00   0.0000000E+00
   0.1747321E+00   0.4684749E+00  -0.2500000E+00   0.0000000E+00   0.0000000E+00   0.0000000E+00   0.0000000E+00
   0.1747321E+00   0.4684749E+00  -0.1666667E+00   0.0000000E+00   0.0000000E+00   0.0000000E+00   0.0000000E+00
   0.1747321E+00   0.4684749E+00  -0.8333330E-01   0.0000000E+00   0.0000000E+00   0.0000000E+00   0.0000000E+00
   0.1747321E+00   0.4684749E+00   0.0000000E+00   0.0000000E+00   0.0000000E+00   0.0000000E+00   0.0000000E+00
   0.2077075E+00   0.4548160E+00  -0.2500000E+00   0.0000000E+00   0.0000000E+00   0.0000000E+00   0.0000000E+00
   0.2077075E+00   0.4548160E+00  -0.1666667E+00   0.0000000E+00   0.0000000E+00   0.0000000E+00   0.0000000E+00
   0.2077075E+00   0.4548160E+00  -0.8333330E-01   0.0000000E+00   0.0000000E+00   0.0000000E+00   0.0000000E+00
   0.2077075E+00   0.4548160E+00   0.0000000E+00   0.0000000E+00   0.0000000E+00   0.0000000E+00   0.0000000E+00
   0.1408663E+00   0.4797465E+00  -0.2500000E+00   0.0000000E+00   0.0000000E+00   0.0000000E+00   0.0000000E+00
   0.1408663E+00   0.4797465E+00  -0.1666667E+00   0.0000000E+00   0.0000000E+00   0.0000000E+00   0.0000000E+00
   0.1408663E+00   0.4797465E+00  -0.8333330E-01   0.0000000E+00   0.0000000E+00   0.0000000E+00   0.0000000E+00
   0.1408663E+00   0.4797465E+00   0.0000000E+00   0.0000000E+00   0.0000000E+00   0.0000000E+00   0.0000000E+00
   0.1747321E+00   0.4684749E+00  -0.2500000E+00   0.0000000E+00   0.0000000E+00   0.0000000E+00   0.0000000E+00
   0.1747321E+00   0.4684749E+00  -0.1666667E+00   0.0000000E+00   0.0000000E+00   0.0000000E+00   0.0000000E+00
   0.1747321E+00   0.4684749E+00  -0.8333330E-01   0.0000000E+00   0.0000000E+00   0.0000000E+00   0.0000000E+00
   0.1747321E+00   0.4684749E+00   0.0000000E+00   0.0000000E+00   0.0000000E+00   0.0000000E+00   0.0000000E+00
   0.1062826E+00   0.4885734E+00  -0.2500000E+00   0.0000000E+00   0.0000000E+00   0.0000000E+00   0.0000000E+00
   0.1062826E+00   0.4885734E+00  -0.1666667E+00   0.0000000E+00   0.0000000E+00   0.0000000E+00   0.0000000E+00
   0.1062826E+00   0.4885734E+00  -0.8333330E-01   0.0000000E+00   0.0000000E+00   0.0000000E+00   0.0000000E+00
   0.1062826E+00   0.4885734E+00   0.0000000E+00   0.0000000E+00   0.0000000E+00   0.0000000E+00   0.0000000E+00
   0.1408663E+00   0.4797465E+00  -0.2500000E+00   0.0000000E+00   0.0000000E+00   0.0000000E+00   0.0000000E+00
   0.1408663E+00   0.4797465E+00  -0.1666667E+00   0.0000000E+00   0.0000000E+00   0.0000000E+00   0.0000000E+00
   0.1408663E+00   0.4797465E+00  -0.8333330E-01   0.0000000E+00   0.0000000E+00   0.0000000E+00   0.0000000E+00
   0.1408663E+00   0.4797465E+00   0.0000000E+00   0.0000000E+00   0.0000000E+00   0.0000000E+00   0.0000000E+00
   0.7115740E-01   0.4949107E+00  -0.2500000E+00   0.0000000E+00   0.0000000E+00   0.0000000E+00   0.0000000E+00
   0.7115740E-01   0.4949107E+00  -0.1666667E+00   0.0000000E+00   0.0000000E+00   0.0000000E+00   0.0000000E+00
   0.7115740E-01   0.4949107E+00  -0.8333330E-01   0.0000000E+00   0.0000000E+00   0.0000000E+00   0.0000000E+00
   0.7115740E-01   0.4949107E+00   0.0000000E+00   0.0000000E+00   0.0000000E+00   0.0000000E+00   0.0000000E+00
   0.1062826E+00   0.4885734E+00  -0.2500000E+00   0.0000000E+00   0.0000000E+00   0.0000000E+00   0.0000000E+00
   0.1062826E+00   0.4885734E+00  -0.1666667E+00   0.0000000E+00   0.0000000E+00   0.0000000E+00   0.0000000E+00
   0.1062826E+00   0.4885734E+00  -0.8333330E-01   0.0000000E+00   0.0000000E+00   0.0000000E+00   0.0000000E+00
   0.1062826E+00   0.4885734E+00   0.0000000E+00   0.0000000E+00   0.0000000E+00   0.0000000E+00   0.0000000E+00
   0.3566960E-01   0.4987261E+00  -0.2500000E+00   0.0000000E+00   0.0000000E+00   0.0000000E+00   0.0000000E+00
   0.3566960E-01   0.4987261E+00  -0.1666667E+00   0.0000000E+00   0.0000000E+00   0.0000000E+00   0.0000000E+00
   0.3566960E-01   0.4987261E+00  -0.8333330E-01   0.0000000E+00   0.0000000E+00   0.0000000E+00   0.0000000E+00
   0.3566960E-01   0.4987261E+00   0.0000000E+00   0.0000000E+00   0.0000000E+00   0.0000000E+00   0.0000000E+00
   0.7115740E-01   0.4949107E+00  -0.2500000E+00   0.0000000E+00   0.0000000E+00   0.0000000E+00   0.0000000E+00
   0.7115740E-01   0.4949107E+00  -0.1666667E+00   0.0000000E+00   0.0000000E+00   0.0000000E+00   0.0000000E+00
   0.7115740E-01   0.4949107E+00  -0.8333330E-01   0.0000000E+00   0.0000000E+00   0.0000000E+00   0.0000000E+00
   0.7115740E-01   0.4949107E+00   0.0000000E+00   0.0000000E+00   0.0000000E+00   0.0000000E+00   0.0000000E+00
   0.0000000E+00   0.5000000E+00  -0.2500000E+00   0.0000000E+00   0.0000000E+00   0.0000000E+00   0.0000000E+00
   0.0000000E+00   0.5000000E+00  -0.1666667E+00   0.0000000E+00   0.0000000E+00   0.0000000E+00   0.0000000E+00
   0.0000000E+00   0.5000000E+00  -0.8333330E-01   0.0000000E+00   0.0000000E+00   0.0000000E+00   0.0000000E+00
   0.0000000E+00   0.5000000E+00   0.0000000E+00   0.0000000E+00   0.0000000E+00   0.0000000E+00   0.0000000E+00
   0.3566960E-01   0.4987261E+00  -0.2500000E+00   0.0000000E+00   0.0000000E+00   0.0000000E+00   0.0000000E+00
   0.3566960E-01   0.4987261E+00  -0.1666667E+00   0.0000000E+00   0.0000000E+00   0.0000000E+00   0.0000000E+00
   0.3566960E-01   0.4987261E+00  -0.8333330E-01   0.0000000E+00   0.0000000E+00   0.0000000E+00   0.0000000E+00
   0.3566960E-01   0.4987261E+00   0.0000000E+00   0.0000000E+00   0.0000000E+00   0.0000000E+00   0.0000000E+00
  -0.3566960E-01   0.4987261E+00  -0.2500000E+00   0.0000000E+00   0.0000000E+00   0.0000000E+00   0.0000000E+00
  -0.3566960E-01   0.4987261E+00  -0.1666667E+00   0.0000000E+00   0.0000000E+00   0.0000000E+00   0.0000000E+00
  -0.3566960E-01   0.4987261E+00  -0.8333330E-01   0.0000000E+00   0.0000000E+00   0.0000000E+00   0.0000000E+00
  -0.3566960E-01   0.4987261E+00   0.0000000E+00   0.0000000E+00   0.0000000E+00   0.0000000E+00   0.0000000E+00
   0.0000000E+00   0.5000000E+00  -0.2500000E+00   0.0000000E+00   0.0000000E+00   0.0000000E+00   0.0000000E+00
   0.0000000E+00   0.5000000E+00  -0.1666667E+00   0.0000000E+00   0.0000000E+00   0.0000000E+00   0.0000000E+00
   0.0000000E+00   0.5000000E+00  -0.8333330E-01   0.0000000E+00   0.0000000E+00   0.0000000E+00   0.0000000E+00
   0.0000000E+00   0.5000000E+00   0.0000000E+00   0.0000000E+00   0.0000000E+00   0.0000000E+00   0.0000000E+00
  -0.7115740E-01   0.4949107E+00  -0.2500000E+00   0.0000000E+00   0.0000000E+00   0.0000000E+00   0.0000000E+00
  -0.7115740E-01   0.4949107E+00  -0.1666667E+00   0.0000000E+00   0.0000000E+00   0.0000000E+00   0.0000000E+00
  -0.7115740E-01   0.4949107E+00  -0.8333330E-01   0.0000000E+00   0.0000000E+00   0.0000000E+00   0.0000000E+00
  -0.7115740E-01   0.4949107E+00   0.0000000E+00   0.0000000E+00   0.0000000E+00   0.0000000E+00   0.0000000E+00
  -0.3566960E-01   0.4987261E+00  -0.2500000E+00   0.0000000E+00   0.0000000E+00   0.0000000E+00   0.0000000E+00
  -0.3566960E-01   0.4987261E+00  -0.1666667E+00   0.0000000E+00   0.0000000E+00   0.0000000E+00   0.0000000E+00
  -0.3566960E-01   0.4987261E+00  -0.8333330E-01   0.0000000E+00   0.0000000E+00   0.0000000E+00   0.0000000E+00
  -0.3566960E-01   0.4987261E+00   0.0000000E+00   0.0000000E+00   0.0000000E+00   0.0000000E+00   0.0000000E+00
  -0.1062826E+00   0.4885734E+00  -0.2500000E+00   0.0000000E+00   0.0000000E+00   0.0000000E+00   0.0000000E+00
  -0.1062826E+00   0.4885734E+00  -0.1666667E+00   0.0000000E+00   0.0000000E+00   0.0000000E+00   0.0000000E+00
  -0.1062826E+00   0.4885734E+00  -0.8333330E-01   0.0000000E+00   0.0000000E+00   0.0000000E+00   0.0000000E+00
  -0.1062826E+00   0.4885734E+00   0.0000000E+00   0.0000000E+00   0.0000000E+00   0.0000000E+00   0.0000000E+00
  -0.7115740E-01   0.4949107E+00  -0.2500000E+00   0.0000000E+00   0.0000000E+00   0.0000000E+00   0.0000000E+00
  -0.7115740E-01   0.4949107E+00  -0.1666667E+00   0.0000000E+00   0.0000000E+00   0.0000000E+00   0.0000000E+00
  -0.7115740E-01   0.4949107E+00  -0.8333330E-01   0.0000000E+00   0.0000000E+00   0.0000000E+00   0.0000000E+00
  -0.7115740E-01   0.4949107E+00   0.0000000E+00   0.0000000E+00   0.0000000E+00   0.0000000E+00   0.0000000E+00
  -0.1408663E+00   0.4797465E+00  -0.2500000E+00   0.0000000E+00   0.0000000E+00   0.0000000E+00   0.0000000E+00
  -0.1408663E+00   0.4797465E+00  -0.1666667E+00   0.0000000E+00   0.0000000E+00   0.0000000E+00   0.0000000E+00
  -0.1408663E+00   0.4797465E+00  -0.8333330E-01   0.0000000E+00   0.0000000E+00   0.0000000E+00   0.0000000E+00
  -0.1408663E+00   0.4797465E+00   0.0000000E+00   0.0000000E+00   0.0000000E+00   0.0000000E+00   0.0000000E+00
  -0.1062826E+00   0.4885734E+00  -0.2500000E+00   0.0000000E+00   0.0000000E+00   0.0000000E+00   0.0000000E+00
  -0.1062826E+00   0.4885734E+00  -0.1666667E+00   0.0000000E+00   0.0000000E+00   0.0000000E+00   0.0000000E+00
  -0.1062826E+00   0.4885734E+00  -0.8333330E-01   0.0000000E+00   0.0000000E+00   0.0000000E+00   0.0000000E+00
  -0.1062826E+00   0.4885734E+00   0.0000000E+00   0.0000000E+00   0.0000000E+00   0.0000000E+00   0.0000000E+00
  -0.1747321E+00   0.4684749E+00  -0.2500000E+00   0.0000000E+00   0.0000000E+00   0.0000000E+00   0.0000000E+00
  -0.1747321E+00   0.4684749E+00  -0.1666667E+00   0.0000000E+00   0.0000000E+00   0.0000000E+00   0.0000000E+00
  -0.1747321E+00   0.4684749E+00  -0.8333330E-01   0.0000000E+00   0.0000000E+00   0.0000000E+00   0.0000000E+00
  -0.1747321E+00   0.4684749E+00   0.0000000E+00   0.0000000E+00   0.0000000E+00   0.0000000E+00   0.0000000E+00
  -0.1408663E+00   0.4797465E+00  -0.2500000E+00   0.0000000E+00   0.0000000E+00   0.0000000E+00   0.0000000E+00
  -0.1408663E+00   0.4797465E+00  -0.1666667E+00   0.0000000E+00   0.0000000E+00   0.0000000E+00   0.0000000E+00
  -0.1408663E+00   0.4797465E+00  -0.8333330E-01   0.0000000E+00   0.0000000E+00   0.0000000E+00   0.0000000E+00
  -0.1408663E+00   0.4797465E+00   0.0000000E+00   0.0000000E+00   0.0000000E+00   0.0000000E+00   0.0000000E+00
  -0.2077075E+00   0.4548160E+00  -0.2500000E+00   0.0000000E+00   0.0000000E+00   0.0000000E+00   0.0000000E+00
  -0.2077075E+00   0.4548160E+00  -0.1666667E+00   0.0000000E+00   0.0000000E+00   0.0000000E+00   0.0000000E+00
  -0.2077075E+00   0.4548160E+00  -0.8333330E-01   0.0000000E+00   0.0000000E+00   0.0000000E+00   0.0000000E+00
  -0.2077075E+00   0.4548160E+00   0.0000000E+00   0.0000000E+00   0.0000000E+00   0.0000000E+00   0.0000000E+00
  -0.1747321E+00   0.4684749E+00  -0.2500000E+00   0.0000000E+00   0.0000000E+00   0.0000000E+00   0.0000000E+00
  -0.1747321E+00   0.4684749E+00  -0.1666667E+00   0.0000000E+00   0.0000000E+00   0.0000000E+00   0.0000000E+00
  -0.1747321E+00   0.4684749E+00  -0.8333330E-01   0.0000000E+00   0.0000000E+00   0.0000000E+00   0.0000000E+00
  -0.1747321E+00   0.4684749E+00   0.0000000E+00   0.0000000E+00   0.0000000E+00   0.0000000E+00   0.0000000E+00
  -0.2396245E+00   0.4388395E+00  -0.2500000E+00   0.0000000E+00   0.0000000E+00   0.0000000E+00   0.0000000E+00
  -0.2396245E+00   0.4388395E+00  -0.1666667E+00   0.0000000E+00   0.0000000E+00   0.0000000E+00   0.0000000E+00
  -0.2396245E+00   0.4388395E+00  -0.8333330E-01   0.0000000E+00   0.0000000E+00   0.0000000E+00   0.0000000E+00
  -0.2396245E+00   0.4388395E+00   0.0000000E+00   0.0000000E+00   0.0000000E+00   0.0000000E+00   0.0000000E+00
  -0.2077075E+00   0.4548160E+00  -0.2500000E+00   0.0000000E+00   0.0000000E+00   0.0000000E+00   0.0000000E+00
  -0.2077075E+00   0.4548160E+00  -0.1666667E+00   0.0000000E+00   0.0000000E+00   0.0000000E+00   0.0000000E+00
  -0.2077075E+00   0.4548160E+00  -0.8333330E-01   0.0000000E+00   0.0000000E+00   0.0000000E+00   0.0000000E+00
  -0.2077075E+00   0.4548160E+00   0.0000000E+00   0.0000000E+00   0.0000000E+00   0.0000000E+00   0.0000000E+00
  -0.2703204E+00   0.4206268E+00  -0.2500000E+00   0.0000000E+00   0.0000000E+00   0.0000000E+00   0.0000000E+00
  -0.2703204E+00   0.4206268E+00  -0.1666667E+00   0.0000000E+00   0.0000000E+00   0.0000000E+00   0.0000000E+00
  -0.2703204E+00   0.4206268E+00  -0.8333330E-01   0.0000000E+00   0.0000000E+00   0.0000000E+00   0.0000000E+00
  -0.2703204E+00   0.4206268E+00   0.0000000E+00   0.0000000E+00   0.0000000E+00   0.0000000E+00   0.0000000E+00
  -0.2396245E+00   0.4388395E+00  -0.2500000E+00   0.0000000E+00   0.0000000E+00   0.0000000E+00   0.0000000E+00
  -0.2396245E+00   0.4388395E+00  -0.1666667E+00   0.0000000E+00   0.0000000E+00   0.0000000E+00   0.0000000E+00
  -0.2396245E+00   0.4388395E+00  -0.8333330E-01   0.0000000E+00   0.0000000E+00   0.0000000E+00   0.0000000E+00
  -0.2396245E+00   0.4388395E+00   0.0000000E+00   0.0000000E+00   0.0000000E+00   0.0000000E+00   0.0000000E+00
  -0.2996388E+00   0.4002706E+00  -0.2500000E+00   0.0000000E+00   0.0000000E+00   0.0000000E+00   0.0000000E+00
  -0.2996388E+00   0.4002706E+00  -0.1666667E+00   0.0000000E+00   0.0000000E+00   0.0000000E+00   0.0000000E+00
  -0.2996388E+00   0.4002706E+00  -0.8333330E-01   0.0000000E+00   0.0000000E+00   0.0000000E+00   0.0000000E+00
  -0.2996388E+00   0.4002706E+00   0.0000000E+00   0.0000000E+00   0.0000000E+00   0.0000000E+00   0.0000000E+00
  -0.2703204E+00   0.4206268E+00  -0.2500000E+00   0.0000000E+00   0.0000000E+00   0.0000000E+00   0.0000000E+00
  -0.2703204E+00   0.4206268E+00  -0.1666667E+00   0.0000000E+00   0.0000000E+00   0.0000000E+00   0.0000000E+00
  -0.2703204E+00   0.4206268E+00  -0.8333330E-01   0.0000000E+00   0.0000000E+00   0.0000000E+00   0.0000000E+00
  -0.2703204E+00   0.4206268E+00   0.0000000E+00   0.0000000E+00   0.0000000E+00   0.0000000E+00   0.0000000E+00
  -0.3274304E+00   0.3778748E+00  -0.2500000E+00   0.0000000E+00   0.0000000E+00   0.0000000E+00   0.0000000E+00
  -0.3274304E+00   0.3778748E+00  -0.1666667E+00   0.0000000E+00   0.0000000E+00   0.0000000E+00   0.0000000E+00
  -0.3274304E+00   0.3778748E+00  -0.8333330E-01   0.0000000E+00   0.0000000E+00   0.0000000E+00   0.0000000E+00
  -0.3274304E+00   0.3778748E+00   0.0000000E+00   0.0000000E+00   0.0000000E+00   0.0000000E+00   0.0000000E+00
  -0.2996388E+00   0.4002706E+00  -0.2500000E+00   0.0000000E+00   0.0000000E+00   0.0000000E+00   0.0000000E+00
  -0.2996388E+00   0.4002706E+00  -0.1666667E+00   0.0000000E+00   0.0000000E+00   0.0000000E+00   0.0000000E+00
  -0.2996388E+00   0.4002706E+00  -0.8333330E-01   0.0000000E+00   0.0000000E+00   0.0000000E+00   0.0000000E+00
  -0.2996388E+00   0.4002706E+00   0.0000000E+00   0.0000000E+00   0.0000000E+00   0.0000000E+00   0.0000000E+00
  -0.3535534E+00   0.3535534E+00  -0.2500000E+00   0.0000000E+00   0.0000000E+00   0.0000000E+00   0.0000000E+00
  -0.3535534E+00   0.3535534E+00  -0.1666667E+00   0.0000000E+00   0.0000000E+00   0.0000000E+00   0.0000000E+00
  -0.3535534E+00   0.3535534E+00  -0.8333330E-01   0.0000000E+00   0.0000000E+00   0.0000000E+00   0.0000000E+00
  -0.3535534E+00   0.3535534E+00   0.0000000E+00   0.0000000E+00   0.0000000E+00   0.0000000E+00   0.0000000E+00
  -0.3274304E+00   0.3778748E+00  -0.2500000E+00   0.0000000E+00   0.0000000E+00   0.0000000E+00   0.0000000E+00
  -0.3274304E+00   0.3778748E+00  -0.1666667E+00   0.0000000E+00   0.0000000E+00   0.0000000E+00   0.0000000E+00
  -0.3274304E+00   0.3778748E+00  -0.8333330E-01   0.0000000E+00   0.0000000E+00   0.0000000E+00   0.0000000E+00
  -0.3274304E+00   0.3778748E+00   0.0000000E+00   0.0000000E+00   0.0000000E+00   0.0000000E+00   0.0000000E+00