VARIABLES="w (rad/s)"
"abs(F   1   1)" "angle(F   1   1)"
"abs(F   1   2)" "angle(F   1   2)"
"abs(F   1   3)" "angle(F   1   3)"
"abs(F   1   4)" "angle(F   1   4)"
"abs(F   1   5)" "angle(F   1   5)"
"abs(F   1   6)" "angle(F   1   6)"
Zone t="Diffraction force - beta =   0.000 deg",I=  2986,F=POINT
  0.1500000E+00  0.1616226E+03 -0.1570795E+01  0.9384491E-03  0.4287195E-03  0.1003404E+05 -0.9859315E-04  0.2100881E-04 -0.3139642E+01  0.1951287E+02  0.1570803E+01  0.3054392E-04 -0.3080451E+01
  0.1600000E+00  0.1725515E+03 -0.1570797E+01  0.2781880E-03 -0.6427807E-03  0.1003120E+05 -0.1121556E-03  0.3769435E-04 -0.3953164E-03  0.2083455E+02  0.1570819E+01  0.1312791E-04 -0.5124938E+00
  0.1700000E+00  0.1833184E+03 -0.1570783E+01  0.6774477E-03  0.3141439E+01  0.1002814E+05 -0.1267291E-03  0.1886565E-04  0.9083480E-02  0.2214197E+02  0.1570772E+01  0.7064391E-05 -0.2143259E+01
  0.1800000E+00  0.1940502E+03 -0.1570795E+01  0.1117795E-02 -0.3141260E+01  0.1002488E+05 -0.1423659E-03  0.9178179E-05 -0.1420646E-01  0.2346161E+02  0.1570831E+01  0.1529488E-04 -0.3099199E+01
  0.1900000E+00  0.2049833E+03 -0.1570791E+01  0.1819250E-02 -0.3141183E+01  0.1002149E+05 -0.1587102E-03  0.2580883E-04 -0.1010392E-02  0.2476550E+02  0.1570793E+01  0.1055130E-04 -0.2143768E+01
  0.2000000E+00  0.2160079E+03 -0.1570779E+01  0.1152259E-02 -0.3141101E+01  0.1001790E+05 -0.1760923E-03  0.2462420E-04  0.1361572E-02  0.2610863E+02  0.1570807E+01  0.1164262E-04 -0.1840605E+00
  0.2100000E+00  0.2269851E+03 -0.1570786E+01  0.1514562E-02 -0.1967719E-03  0.1001415E+05 -0.1943873E-03  0.8075704E-04  0.2214218E-02  0.2743640E+02  0.1570818E+01  0.6021653E-05  0.9018041E+00
  0.2200000E+00  0.2380038E+03 -0.1570786E+01  0.4669768E-03 -0.3140156E+01  0.1001021E+05 -0.2136358E-03  0.8557002E-04 -0.1523726E-02  0.2877312E+02  0.1570838E+01  0.8048787E-06 -0.1593940E+01
  0.2300000E+00  0.2490371E+03 -0.1570774E+01  0.7149400E-03 -0.3140009E+01  0.1000606E+05 -0.2338319E-03  0.9127155E-04 -0.3140245E+01  0.3011588E+02  0.1570796E+01  0.3831404E-05 -0.1621116E+00
  0.2400000E+00  0.2599337E+03 -0.1570767E+01  0.2388772E-03 -0.1621880E-02  0.1000174E+05 -0.2550006E-03  0.1231527E-03 -0.3139808E+01  0.3145031E+02  0.1570822E+01  0.1346273E-04  0.2993845E+01
  0.2500000E+00  0.2707646E+03 -0.1570779E+01  0.8603306E-03  0.3140155E+01  0.9997247E+04 -0.2771507E-03  0.3358126E-04  0.3132163E+01  0.3273981E+02  0.1570816E+01  0.4602517E-04  0.3043172E+01
  0.2600000E+00  0.2816429E+03 -0.1570782E+01  0.6690176E-03  0.5122836E-03  0.9992596E+04 -0.3002590E-03  0.9537582E-05  0.3128312E+01  0.3405581E+02  0.1570832E+01  0.5186754E-04 -0.4015674E+00
  0.2700000E+00  0.2925800E+03 -0.1570776E+01  0.2285257E-02 -0.3140856E+01  0.9987780E+04 -0.3243416E-03  0.2074378E-04 -0.1149374E-01  0.3538743E+02  0.1570822E+01  0.2012409E-04 -0.1568019E+01
  0.2800000E+00  0.3034972E+03 -0.1570772E+01  0.1903571E-02 -0.3141483E+01  0.9982782E+04 -0.3494123E-03  0.4414028E-04  0.3129861E+01  0.3670614E+02  0.1570814E+01  0.3531329E-04  0.2892597E+01
  0.2900000E+00  0.3144636E+03 -0.1570769E+01  0.5353840E-03 -0.3140619E+01  0.9977593E+04 -0.3754948E-03  0.5649794E-04  0.3139021E+01  0.3804011E+02  0.1570834E+01  0.3925605E-04 -0.2898938E+01
  0.3000000E+00  0.3255062E+03 -0.1570770E+01  0.5812384E-03  0.3137978E+01  0.9972225E+04 -0.4025862E-03  0.1067483E-03  0.1779802E-02  0.3938810E+02  0.1570836E+01  0.8406306E-05  0.2052282E+01
  0.3100000E+00  0.3366802E+03 -0.1570768E+01  0.1043666E-02 -0.2398659E-02  0.9966652E+04 -0.4307213E-03  0.1566140E-04  0.3135645E+01  0.4075978E+02  0.1570824E+01  0.1376099E-04  0.1996662E+01
  0.3200000E+00  0.3478174E+03 -0.1570765E+01  0.1050562E-02 -0.3140997E+01  0.9960880E+04 -0.4599089E-03  0.6687099E-05  0.3133793E+01  0.4212575E+02  0.1570825E+01  0.1043068E-04 -0.2717566E+01
  0.3300000E+00  0.3589607E+03 -0.1570763E+01  0.1191639E-02 -0.3141092E+01  0.9955008E+04 -0.4901160E-03  0.3290578E-04  0.3137404E+01  0.4345824E+02  0.1570842E+01  0.1007032E-04 -0.1176689E+01
  0.3400000E+00  0.3700509E+03 -0.1570763E+01  0.1187005E-02  0.1481322E-02  0.9948940E+04 -0.5214470E-03  0.4930090E-04  0.4080377E-02  0.4479404E+02  0.1570828E+01  0.3244060E-04 -0.3119083E+01
  0.3500000E+00  0.3812338E+03 -0.1570755E+01  0.5415910E-05  0.1380060E+00  0.9942693E+04 -0.5537992E-03  0.1949906E-04 -0.9552602E-02  0.4615844E+02  0.1570843E+01  0.1989017E-04  0.2754183E+00
  0.3600000E+00  0.3923821E+03 -0.1570757E+01  0.1494097E-03  0.3135010E+01  0.9936269E+04 -0.5872628E-03  0.7145121E-05 -0.3139508E+01  0.4751398E+02  0.1570839E+01  0.2922398E-04  0.2913743E+01
  0.3700000E+00  0.4035492E+03 -0.1570752E+01  0.4004002E-02  0.3141511E+01  0.9929703E+04 -0.6217214E-03  0.1214449E-03  0.2699380E-02  0.4886625E+02  0.1570840E+01  0.3414581E-04  0.2815530E+01
  0.3800000E+00  0.4146882E+03 -0.1570750E+01  0.1120656E-02  0.2127490E-03  0.9922928E+04 -0.6573312E-03  0.1016036E-03 -0.1466586E-03  0.5022214E+02  0.1570840E+01  0.1056887E-04 -0.9978493E+00
  0.3900000E+00  0.4258568E+03 -0.1570750E+01  0.2124742E-02  0.7293689E-03  0.9916000E+04 -0.6940701E-03  0.6262233E-04  0.2498510E-02  0.5158640E+02  0.1570840E+01  0.4570420E-04 -0.1010725E-01
  0.4000000E+00  0.4370709E+03 -0.1570750E+01  0.1635566E-02  0.1275496E-03  0.9908855E+04 -0.7319718E-03  0.1947583E-04 -0.3140827E+01  0.5295794E+02  0.1570841E+01  0.1532551E-04  0.1818841E+01
  0.4100000E+00  0.4482809E+03 -0.1570741E+01  0.1008004E-02  0.3141267E+01  0.9901500E+04 -0.7710480E-03  0.9762513E-04  0.3139684E+01  0.5433883E+02  0.1570840E+01  0.4383710E-04 -0.3084114E+01
  0.4200000E+00  0.4594762E+03 -0.1570741E+01  0.1463041E-02  0.4685128E-03  0.9893990E+04 -0.8113380E-03  0.7472189E-04 -0.3140994E+01  0.5571568E+02  0.1570851E+01  0.5319501E-04 -0.2885574E+01
  0.4300000E+00  0.4706931E+03 -0.1570733E+01  0.2672428E-03 -0.3135237E+01  0.9886310E+04 -0.8528763E-03  0.1539394E-04  0.3129977E+01  0.5707769E+02  0.1570848E+01  0.8136611E-05 -0.3828869E+00
  0.4400000E+00  0.4818967E+03 -0.1570738E+01  0.1060234E-03 -0.5621866E-02  0.9878504E+04 -0.8956735E-03  0.7299348E-04 -0.3139653E+01  0.5842212E+02  0.1570861E+01  0.4508753E-04 -0.2872645E+01
  0.4500000E+00  0.4931769E+03 -0.1570728E+01  0.3221477E-03  0.9436299E-02  0.9870511E+04 -0.9395133E-03  0.4658240E-04 -0.3133915E+01  0.5979728E+02  0.1570856E+01  0.2884121E-04 -0.2990672E+01
  0.4600000E+00  0.5044944E+03 -0.1570733E+01  0.7131716E-03  0.3139211E+01  0.9862335E+04 -0.9846336E-03  0.1852331E-04 -0.1126260E-01  0.6118958E+02  0.1570870E+01  0.1007341E-04  0.3065470E+00
  0.4700000E+00  0.5158969E+03 -0.1570722E+01  0.1526900E-02  0.3138548E+01  0.9853988E+04 -0.1031029E-02  0.8178584E-04  0.3137129E+01  0.6258989E+02  0.1570866E+01  0.2421868E-04  0.1807418E+01
  0.4800000E+00  0.5273939E+03 -0.1570716E+01  0.7239902E-03 -0.2552170E-02  0.9845508E+04 -0.1078528E-02  0.1110167E-03  0.3134211E+01  0.6399270E+02  0.1570881E+01  0.2966574E-04  0.2694906E+01
  0.4900000E+00  0.5389131E+03 -0.1570716E+01  0.4112756E-03 -0.4130411E-02  0.9836806E+04 -0.1127353E-02  0.4449520E-04  0.3137742E+01  0.6540384E+02  0.1570881E+01  0.4418198E-04 -0.9186598E-01
  0.5000000E+00  0.5504825E+03 -0.1570711E+01  0.1466090E-03 -0.3113943E+01  0.9827948E+04 -0.1177497E-02  0.3234306E-04 -0.2303699E-02  0.6682334E+02  0.1570876E+01  0.1727225E-04  0.7339721E-01
  0.5100000E+00  0.5620877E+03 -0.1570709E+01  0.6201205E-03 -0.3136306E+01  0.9818914E+04 -0.1229009E-02  0.3765524E-04  0.3957280E-03  0.6824897E+02  0.1570888E+01  0.9397500E-05 -0.2236499E+01
  0.5200000E+00  0.5737344E+03 -0.1570707E+01  0.3088266E-02 -0.3141265E+01  0.9809684E+04 -0.1281915E-02  0.4896867E-04 -0.3129724E+01  0.6968093E+02  0.1570883E+01  0.2114292E-04  0.1778363E+00
  0.5300000E+00  0.5854220E+03 -0.1570702E+01  0.8686244E-03 -0.3671157E-02  0.9800289E+04 -0.1336290E-02  0.3418383E-04 -0.3111510E+01  0.7111974E+02  0.1570898E+01  0.4597273E-04  0.3096198E+01
  0.5400000E+00  0.5971214E+03 -0.1570694E+01  0.4931556E-03 -0.8218828E-02  0.9790655E+04 -0.1392031E-02  0.7398737E-04 -0.3132429E+01  0.7256939E+02  0.1570891E+01  0.2387580E-04  0.1643883E+01
  0.5500000E+00  0.6088068E+03 -0.1570691E+01  0.9983852E-04  0.3137712E+01  0.9780879E+04 -0.1449323E-02  0.2916753E-03  0.3141337E+01  0.7401275E+02  0.1570901E+01  0.7527215E-05  0.3117834E+01
  0.5600000E+00  0.6205341E+03 -0.1570687E+01  0.7080770E-03  0.3138394E+01  0.9770908E+04 -0.1508165E-02  0.1606500E-04 -0.3127679E+01  0.7545559E+02  0.1570899E+01  0.1243369E-04  0.9222617E+00
  0.5700001E+00  0.6322255E+03 -0.1570680E+01  0.1094582E-02 -0.1742540E-02  0.9760830E+04 -0.1568744E-02  0.4027423E-05 -0.3011731E+01  0.7687391E+02  0.1570904E+01  0.8864135E-05 -0.8103626E+00
  0.5800000E+00  0.6439224E+03 -0.1570677E+01  0.4241469E-03  0.1124227E-02  0.9750601E+04 -0.1630650E-02  0.2017179E-03 -0.3138675E+01  0.7828968E+02  0.1570923E+01  0.4576517E-04 -0.4138273E+00
  0.5900000E+00  0.6556721E+03 -0.1570675E+01  0.6947817E-03 -0.3140992E+01  0.9740175E+04 -0.1693815E-02  0.4653986E-04  0.1232726E-01  0.7973288E+02  0.1570923E+01  0.9258507E-05  0.2173084E+01
  0.6000000E+00  0.6674817E+03 -0.1570668E+01  0.1115177E-02 -0.3138787E+01  0.9729594E+04 -0.1758500E-02  0.1038913E-03  0.2796916E-02  0.8119557E+02  0.1570931E+01  0.1869421E-04  0.1673003E+01
  0.6100000E+00  0.6793097E+03 -0.1570664E+01  0.1520346E-03  0.2372104E-01  0.9718787E+04 -0.1824984E-02  0.1336637E-04  0.3139362E+01  0.8266094E+02  0.1570926E+01  0.5315679E-04  0.2890019E+01
  0.6200000E+00  0.6911870E+03 -0.1570654E+01  0.1110081E-02 -0.3138720E+01  0.9707858E+04 -0.1892768E-02  0.5814459E-04  0.3138645E+01  0.8413156E+02  0.1570929E+01  0.1792744E-04  0.2803545E+01
  0.6300000E+00  0.7030265E+03 -0.1570650E+01  0.8607209E-03  0.3141558E+01  0.9696783E+04 -0.1961893E-02  0.2034363E-04 -0.3122913E+01  0.8558627E+02  0.1570936E+01  0.3402352E-04 -0.4468754E-01
  0.6400000E+00  0.7149062E+03 -0.1570645E+01  0.3245560E-04 -0.3020085E+01  0.9685510E+04 -0.2032725E-02  0.1363606E-03 -0.1092776E-02  0.8705634E+02  0.1570947E+01  0.1596963E-04  0.2823678E+01
  0.6500000E+00  0.7268361E+03 -0.1570641E+01  0.1151357E-02  0.3138874E+01  0.9674125E+04 -0.2105327E-02  0.1538992E-03  0.3140770E+01  0.8853543E+02  0.1570954E+01  0.2391806E-04 -0.4982031E+00
  0.6600000E+00  0.7388243E+03 -0.1570634E+01  0.2094984E-02  0.3141479E+01  0.9662493E+04 -0.2179682E-02  0.3688233E-04 -0.3131290E+01  0.9002267E+02  0.1570956E+01  0.1242147E-04 -0.2764428E+01
  0.6700001E+00  0.7508677E+03 -0.1570627E+01  0.1523077E-02  0.3141084E+01  0.9650610E+04 -0.2255820E-02  0.1191795E-03  0.1250313E-03  0.9152007E+02  0.1570968E+01  0.3163929E-04 -0.1196150E+01
  0.6800001E+00  0.7629613E+03 -0.1570621E+01  0.9061998E-04  0.4935079E-01  0.9638625E+04 -0.2333844E-02  0.1307577E-03 -0.3141193E+01  0.9302623E+02  0.1570967E+01  0.5900623E-04  0.1971609E+01
  0.6900001E+00  0.7751216E+03 -0.1570616E+01  0.7843164E-03 -0.4711748E-02  0.9626457E+04 -0.2413756E-02  0.1782805E-03  0.3135741E+01  0.9454199E+02  0.1570977E+01  0.4753834E-04  0.3310683E+00
  0.7000000E+00  0.7873221E+03 -0.1570609E+01  0.6747568E-03 -0.3138942E+01  0.9614093E+04 -0.2495731E-02  0.4734198E-04  0.3135140E+01  0.9607434E+02  0.1570983E+01  0.7849646E-05  0.1295886E+01
  0.7100000E+00  0.7995583E+03 -0.1570601E+01  0.1705539E-03  0.1712521E-01  0.9601548E+04 -0.2579736E-02  0.5471818E-04  0.6399694E-02  0.9760931E+02  0.1570995E+01  0.3178454E-04 -0.2838820E+01
  0.7200000E+00  0.8118743E+03 -0.1570595E+01  0.7296209E-03 -0.3140530E+01  0.9588808E+04 -0.2665881E-02  0.3087643E-04  0.8928299E-02  0.9915414E+02  0.1571003E+01  0.2927921E-04 -0.2557177E+00
  0.7300000E+00  0.8243215E+03 -0.1570585E+01  0.2958784E-03  0.2417400E-02  0.9575938E+04 -0.2754294E-02  0.5510487E-04  0.3137942E+01  0.1007055E+03  0.1571004E+01  0.3272795E-04 -0.6971793E-01
  0.7400000E+00  0.8368143E+03 -0.1570579E+01  0.5281954E-03 -0.1207480E-01  0.9562961E+04 -0.2845165E-02  0.4235032E-04 -0.7564960E-02  0.1022435E+03  0.1571016E+01  0.1253492E-04 -0.6970218E+00
  0.7500000E+00  0.8493441E+03 -0.1570571E+01  0.1334904E-03  0.3132216E+01  0.9549815E+04 -0.2938289E-02  0.1976423E-04  0.3081996E+01  0.1037820E+03  0.1571026E+01  0.2379247E-04  0.6624160E+00
  0.7600000E+00  0.8619510E+03 -0.1570562E+01  0.6327098E-03 -0.3137071E+01  0.9536518E+04 -0.3032231E-02  0.1543806E-04 -0.7721853E-02  0.1053441E+03  0.1571025E+01  0.2116859E-04  0.1854028E+01
  0.7700000E+00  0.8746381E+03 -0.1570552E+01  0.1022756E-02  0.5827802E-04  0.9523013E+04 -0.3128436E-02  0.3971796E-05  0.6382296E-01  0.1069297E+03  0.1571034E+01  0.4870220E-04 -0.2152944E+01
  0.7800000E+00  0.8873729E+03 -0.1570545E+01  0.1470868E-02  0.3139243E+01  0.9509330E+04 -0.3227022E-02  0.1261240E-03 -0.3138579E+01  0.1085276E+03  0.1571048E+01  0.2249720E-04  0.2618667E+01
  0.7900000E+00  0.9001699E+03 -0.1570538E+01  0.1690274E-02 -0.3139089E+01  0.9495465E+04 -0.3328191E-02  0.1835228E-03  0.3140537E+01  0.1101328E+03  0.1571058E+01  0.1797003E-04  0.5074208E+00
  0.8000000E+00  0.9130305E+03 -0.1570527E+01  0.4091155E-03  0.1544393E-01  0.9481442E+04 -0.3431363E-02  0.1456804E-03 -0.9615090E-02  0.1117456E+03  0.1571066E+01  0.4934283E-04 -0.3084787E+01
  0.8099999E+00  0.9259113E+03 -0.1570519E+01  0.1784268E-02  0.1603473E-02  0.9467323E+04 -0.3535244E-02  0.2761452E-04  0.3083011E+01  0.1133555E+03  0.1571075E+01  0.5196989E-04  0.2983232E+01
  0.8200001E+00  0.9387950E+03 -0.1570506E+01  0.1294318E-02 -0.3139613E+01  0.9453044E+04 -0.3641608E-02  0.9775172E-04  0.1448170E-02  0.1149610E+03  0.1571085E+01  0.2603415E-04 -0.1430680E+01
  0.8300000E+00  0.9517479E+03 -0.1570497E+01  0.1467171E-02 -0.3139846E+01  0.9438530E+04 -0.3750559E-02  0.2137725E-03 -0.1916908E-02  0.1165855E+03  0.1571096E+01  0.1199792E-03 -0.3121223E+01
  0.8400000E+00  0.9647523E+03 -0.1570487E+01  0.1611472E-02 -0.3140668E+01  0.9423829E+04 -0.3861998E-02  0.1049352E-03 -0.4686134E-02  0.1182174E+03  0.1571100E+01  0.1624992E-04  0.2339335E+01
  0.8500000E+00  0.9778574E+03 -0.1570477E+01  0.1703101E-02 -0.3137078E+01  0.9409049E+04 -0.3975945E-02  0.1551814E-03 -0.3138616E+01  0.1198644E+03  0.1571116E+01  0.1307538E-04  0.1016304E+01
  0.8600000E+00  0.9909752E+03 -0.1570464E+01  0.1373114E-02  0.1779745E-02  0.9394002E+04 -0.4092616E-02  0.6864657E-04  0.1856061E-01  0.1215173E+03  0.1571127E+01  0.7909976E-05 -0.1350493E+01
  0.8700000E+00  0.1004163E+04 -0.1570457E+01  0.1365566E-03 -0.3111471E+01  0.9378848E+04 -0.4211992E-02  0.1345947E-04 -0.5261216E-01  0.1231813E+03  0.1571139E+01  0.3818356E-04 -0.5622396E+00
  0.8800000E+00  0.1017426E+04 -0.1570444E+01  0.1010358E-02 -0.3140885E+01  0.9363503E+04 -0.4334141E-02  0.1631150E-03 -0.3132412E+01  0.1248559E+03  0.1571151E+01  0.3568017E-04 -0.6101204E-01
  0.8900001E+00  0.1030747E+04 -0.1570431E+01  0.1228374E-02  0.8297559E-02  0.9347966E+04 -0.4459293E-02  0.4490256E-04 -0.3111555E+01  0.1265398E+03  0.1571157E+01  0.6404553E-04 -0.1567539E+01
  0.9000000E+00  0.1044105E+04 -0.1570419E+01  0.3482704E-03  0.1540298E-02  0.9332188E+04 -0.4587490E-02  0.2707840E-03 -0.3301719E-03  0.1282437E+03  0.1571178E+01  0.1653232E-04  0.2248915E+01
  0.9100001E+00  0.1057491E+04 -0.1570408E+01  0.6947182E-03  0.1570147E-01  0.9316255E+04 -0.4718885E-02  0.1151052E-03 -0.1223399E-01  0.1299517E+03  0.1571186E+01  0.4318720E-04 -0.2649240E+01
  0.9200000E+00  0.1070914E+04 -0.1570393E+01  0.1062183E-02 -0.7238931E-02  0.9300082E+04 -0.4853567E-02  0.2053686E-03 -0.3138835E+01  0.1316629E+03  0.1571196E+01  0.2158028E-04  0.2278974E+01
  0.9300001E+00  0.1084452E+04 -0.1570380E+01  0.7337876E-04  0.3129409E+01  0.9283836E+04 -0.4991671E-02  0.6496940E-06  0.9318783E+00  0.1333920E+03  0.1571209E+01  0.4303753E-04  0.6552734E+00
  0.9400001E+00  0.1097998E+04 -0.1570366E+01  0.2497579E-03 -0.1073942E-01  0.9267490E+04 -0.5133491E-02  0.2709329E-03 -0.3141042E+01  0.1350989E+03  0.1571227E+01  0.8787397E-04 -0.2685377E+01
  0.9500000E+00  0.1111586E+04 -0.1570353E+01  0.2654683E-04  0.3038125E+01  0.9251019E+04 -0.5279712E-02  0.1871288E-03 -0.3140956E+01  0.1367995E+03  0.1571246E+01  0.6965091E-04 -0.5552430E+00
  0.9600000E+00  0.1125230E+04 -0.1570338E+01  0.1813241E-02 -0.3089960E-02  0.9234402E+04 -0.5429392E-02  0.1428130E-03  0.1982464E-02  0.1385038E+03  0.1571259E+01  0.7711738E-04 -0.1048007E+01
  0.9700000E+00  0.1138982E+04 -0.1570323E+01  0.1733158E-02 -0.6224770E-02  0.9217612E+04 -0.5579223E-02  0.1688600E-03 -0.3140975E+01  0.1402354E+03  0.1571273E+01  0.3355443E-04  0.1610775E+01
  0.9800000E+00  0.1152803E+04 -0.1570307E+01  0.5390051E-03  0.1105828E-02  0.9200659E+04 -0.5732791E-02  0.2216439E-03  0.5983524E-02  0.1419920E+03  0.1571286E+01  0.9559017E-04 -0.8083697E-01
  0.9900000E+00  0.1166748E+04 -0.1570290E+01  0.2571974E-03  0.5098448E-02  0.9183509E+04 -0.5890090E-02  0.2051615E-04  0.3077634E+01  0.1437750E+03  0.1571299E+01  0.8368888E-04  0.1758135E+01
  0.1000000E+01  0.1180704E+04 -0.1570277E+01  0.1043426E-03  0.3115884E+01  0.9166164E+04 -0.6051797E-02  0.6574867E-04 -0.3129580E+01  0.1455618E+03  0.1571318E+01  0.3569001E-04 -0.1053722E+01
  0.1010000E+01  0.1194774E+04 -0.1570256E+01  0.7372505E-03 -0.1293553E-02  0.9148631E+04 -0.6217993E-02  0.1050831E-03 -0.1276221E-02  0.1473629E+03  0.1571333E+01  0.2460480E-04 -0.1820475E+01
  0.1020000E+01  0.1208910E+04 -0.1570241E+01  0.1229764E-02 -0.7754980E-03  0.9130952E+04 -0.6386551E-02  0.1321521E-03  0.1138877E-01  0.1491732E+03  0.1571352E+01  0.1338244E-04 -0.2664998E+01
  0.1030000E+01  0.1223335E+04 -0.1570222E+01  0.9129648E-03  0.3140613E+01  0.9113263E+04 -0.6552986E-02  0.3965369E-04  0.2893928E-01  0.1510189E+03  0.1571369E+01  0.2984857E-04  0.1030719E+01
  0.1040000E+01  0.1237606E+04 -0.1570202E+01  0.1049282E-02 -0.1079319E-01  0.9095385E+04 -0.6724277E-02  0.7830550E-04 -0.3090000E+01  0.1528319E+03  0.1571387E+01  0.1398733E-04 -0.1827144E+01
  0.1050000E+01  0.1252010E+04 -0.1570185E+01  0.2954747E-03 -0.3119199E+01  0.9077340E+04 -0.6899695E-02  0.3132073E-05  0.2677948E+01  0.1546803E+03  0.1571409E+01  0.1907217E-04 -0.3063382E+01
  0.1060000E+01  0.1266541E+04 -0.1570166E+01  0.3149926E-03  0.1627412E-01  0.9059093E+04 -0.7079242E-02  0.4994448E-05 -0.2351975E+01  0.1565455E+03  0.1571430E+01  0.2439907E-04 -0.5062680E+00
  0.1070000E+01  0.1281217E+04 -0.1570144E+01  0.2799450E-03  0.4472715E-01  0.9040686E+04 -0.7262740E-02  0.1123942E-04 -0.2946797E+01  0.1584309E+03  0.1571451E+01  0.2458072E-04  0.1144570E+01
  0.1080000E+01  0.1296110E+04 -0.1570124E+01  0.1143339E-02 -0.3139559E+01  0.9022120E+04 -0.7450445E-02  0.9282434E-04  0.2070995E-01  0.1603448E+03  0.1571466E+01  0.1720957E-04  0.7106102E-01
  0.1090000E+01  0.1311094E+04 -0.1570101E+01  0.1033357E-03 -0.1057525E+00  0.9003386E+04 -0.7642511E-02  0.4300507E-04 -0.3743056E-01  0.1622760E+03  0.1571488E+01  0.6712844E-04 -0.1657477E+01
  0.1100000E+01  0.1326179E+04 -0.1570080E+01  0.5505655E-03  0.1439918E-01  0.8984494E+04 -0.7838969E-02  0.6699575E-04  0.3139591E+01  0.1642232E+03  0.1571513E+01  0.3782229E-04  0.6922161E+00
  0.1110000E+01  0.1341368E+04 -0.1570058E+01  0.1228979E-02 -0.9020995E-02  0.8965419E+04 -0.8040063E-02  0.1167096E-03  0.3133677E+01  0.1661860E+03  0.1571539E+01  0.2596363E-04  0.3032330E+01
  0.1120000E+01  0.1356672E+04 -0.1570034E+01  0.2071991E-02  0.3595865E-02  0.8946152E+04 -0.8246049E-02  0.7403786E-04  0.1549795E-01  0.1681650E+03  0.1571559E+01  0.5199196E-04  0.1354738E+01
  0.1130000E+01  0.1372068E+04 -0.1570010E+01  0.2916814E-02  0.9195680E-03  0.8926750E+04 -0.8457035E-02  0.8231404E-04 -0.5430902E-03  0.1701662E+03  0.1571583E+01  0.6290747E-04 -0.3113638E+01
  0.1140000E+01  0.1387526E+04 -0.1569984E+01  0.1679611E-03 -0.3691506E-01  0.8907146E+04 -0.8673244E-02  0.9822886E-04 -0.3138710E+01  0.1721863E+03  0.1571604E+01  0.1905952E-04 -0.4706403E+00
  0.1150000E+01  0.1403036E+04 -0.1569959E+01  0.7623422E-03  0.1759280E-01  0.8887381E+04 -0.8894826E-02  0.9161079E-05 -0.3046294E+01  0.1742068E+03  0.1571633E+01  0.3023533E-04  0.2640909E+01
  0.1160000E+01  0.1418640E+04 -0.1569932E+01  0.8659464E-03  0.4818244E-02  0.8867389E+04 -0.9122213E-02  0.3055355E-03  0.3137886E+01  0.1762430E+03  0.1571660E+01  0.3608465E-04 -0.2710454E+01
  0.1170000E+01  0.1434366E+04 -0.1569906E+01  0.9234257E-03  0.3133460E+01  0.8847265E+04 -0.9355428E-02  0.5926170E-04  0.2225487E-01  0.1782974E+03  0.1571691E+01  0.1198706E-04 -0.3768129E+00
  0.1180000E+01  0.1450155E+04 -0.1569877E+01  0.3193327E-03 -0.3621874E-01  0.8827147E+04 -0.9595144E-02  0.2989213E-03  0.5209337E-02  0.1803345E+03  0.1571718E+01  0.6577983E-04 -0.1336696E+01
  0.1190000E+01  0.1465995E+04 -0.1569847E+01  0.1348926E-03  0.8981989E-01  0.8806954E+04 -0.9842076E-02  0.3929742E-03  0.3139564E+01  0.1823612E+03  0.1571745E+01  0.2435332E-04 -0.1070473E+01
  0.1200000E+01  0.1481911E+04 -0.1569815E+01  0.1055717E-02  0.5645912E-03  0.8786616E+04 -0.1009918E-01  0.4983323E-04 -0.1226015E-01  0.1843920E+03  0.1571777E+01  0.1961403E-04 -0.8061757E-01
  0.1210000E+01  0.1497938E+04 -0.1569785E+01  0.1001120E-02  0.3141415E+01  0.8766134E+04 -0.1035222E-01  0.2576867E-05 -0.2393661E+00  0.1864383E+03  0.1571807E+01  0.5857690E-04  0.1328285E+01
  0.1220000E+01  0.1514110E+04 -0.1569753E+01  0.3124916E-03  0.3124807E+01  0.8745457E+04 -0.1061156E-01  0.2217351E-03 -0.3134334E+01  0.1885326E+03  0.1571841E+01  0.1832561E-04 -0.2232838E+01
  0.1230000E+01  0.1530425E+04 -0.1569720E+01  0.1083019E-02  0.3139171E+01  0.8724632E+04 -0.1087761E-01  0.2046913E-03 -0.9318423E-02  0.1906590E+03  0.1571873E+01  0.6258488E-04  0.1854590E+01
  0.1240000E+01  0.1546839E+04 -0.1569685E+01  0.8270715E-03  0.1679242E-01  0.8703613E+04 -0.1115068E-01  0.6416660E-04  0.3158809E-01  0.1928075E+03  0.1571910E+01  0.9396282E-04 -0.4608108E+00
  0.1250000E+01  0.1563368E+04 -0.1569650E+01  0.2089502E-02  0.1283660E-02  0.8682421E+04 -0.1143165E-01  0.7529183E-04  0.3124373E+01  0.1949729E+03  0.1571944E+01  0.3147086E-04 -0.4111091E+00
  0.1260000E+01  0.1580013E+04 -0.1569614E+01  0.8248343E-03  0.3122875E+01  0.8661077E+04 -0.1172175E-01  0.8311128E-04  0.2322036E-01  0.1971499E+03  0.1571981E+01  0.6592204E-04  0.1417391E+01
  0.1270000E+01  0.1596767E+04 -0.1569573E+01  0.1764333E-02  0.3135242E+01  0.8639552E+04 -0.1201663E-01  0.3106821E-04  0.3111371E+01  0.1993428E+03  0.1572019E+01  0.5259414E-05 -0.1978665E+01
  0.1280000E+01  0.1613625E+04 -0.1569535E+01  0.3417756E-03  0.3137756E+01  0.8618170E+04 -0.1229976E-01  0.4905503E-04  0.3137341E+01  0.2015480E+03  0.1572058E+01  0.8141704E-05  0.9807632E+00
  0.1290000E+01  0.1630472E+04 -0.1569496E+01  0.1045824E-02  0.3126432E+01  0.8596627E+04 -0.1259065E-01  0.1667747E-03  0.3138286E+01  0.2037348E+03  0.1572098E+01  0.1000616E-03  0.1768659E+01
  0.1300000E+01  0.1647451E+04 -0.1569457E+01  0.2776325E-03  0.2855752E-01  0.8574871E+04 -0.1288883E-01  0.6402528E-04 -0.3124020E+01  0.2059569E+03  0.1572138E+01  0.2638608E-04 -0.7981771E+00
  0.1310000E+01  0.1664564E+04 -0.1569414E+01  0.2056957E-02 -0.1072152E-02  0.8552862E+04 -0.1319389E-01  0.1902586E-03 -0.3139243E+01  0.2082063E+03  0.1572181E+01  0.2860285E-04  0.2845546E+01
  0.1320000E+01  0.1681819E+04 -0.1569370E+01  0.6559250E-03 -0.3119873E+01  0.8530807E+04 -0.1350584E-01  0.1914730E-04 -0.3853230E-01  0.2104768E+03  0.1572222E+01  0.1821079E-04  0.2114304E+01
  0.1330000E+01  0.1699197E+04 -0.1569326E+01  0.2056487E-02 -0.2753458E-02  0.8508567E+04 -0.1382441E-01  0.2894520E-03 -0.3132532E+01  0.2127661E+03  0.1572269E+01  0.5014654E-04  0.2018231E+01
  0.1340000E+01  0.1716710E+04 -0.1569280E+01  0.7436983E-03 -0.3118989E+01  0.8486383E+04 -0.1414978E-01  0.2718661E-03  0.3104395E+01  0.2150760E+03  0.1572314E+01  0.4370236E-04 -0.6402279E+00
  0.1350000E+01  0.1734319E+04 -0.1569233E+01  0.1487896E-02  0.1951030E-01  0.8463675E+04 -0.1448284E-01  0.1167943E-03 -0.5035340E-01  0.2174061E+03  0.1572359E+01  0.5183524E-04 -0.3497534E+00
  0.1360000E+01  0.1752067E+04 -0.1569184E+01  0.4061460E-03 -0.3141446E+01  0.8441189E+04 -0.1482315E-01  0.1101805E-03  0.4058409E-01  0.2197564E+03  0.1572410E+01  0.9257055E-04 -0.1794145E+01
  0.1370000E+01  0.1769976E+04 -0.1569131E+01  0.3872807E-03 -0.3108805E+01  0.8418354E+04 -0.1517119E-01  0.4199208E-03  0.5411586E-02  0.2221314E+03  0.1572460E+01  0.1757650E-04  0.1192179E+01
  0.1380000E+01  0.1788042E+04 -0.1569080E+01  0.2250122E-03 -0.7662968E-01  0.8395361E+04 -0.1552720E-01  0.5627598E-04 -0.1142392E+00  0.2245312E+03  0.1572512E+01  0.3190876E-04 -0.1664331E+01
  0.1390000E+01  0.1806238E+04 -0.1569026E+01  0.3919471E-04 -0.3010705E+00  0.8372529E+04 -0.1589164E-01  0.2296565E-03  0.3118849E+01  0.2269561E+03  0.1572568E+01  0.5791263E-04  0.1741444E+01
  0.1400000E+01  0.1824547E+04 -0.1568969E+01  0.8479860E-03 -0.1089511E-01  0.8348996E+04 -0.1626469E-01  0.4464402E-04  0.3139090E+01  0.2294154E+03  0.1572626E+01  0.9826071E-04 -0.5553215E-01
  0.1410000E+01  0.1842906E+04 -0.1568911E+01  0.1748866E-03 -0.7436701E-01  0.8325916E+04 -0.1664698E-01  0.4151012E-04 -0.3016703E+01  0.2318786E+03  0.1572681E+01  0.6927939E-04  0.1898396E+01
  0.1420000E+01  0.1861417E+04 -0.1568851E+01  0.5407003E-03 -0.3123733E+01  0.8302208E+04 -0.1703854E-01  0.1407592E-03 -0.3105380E+01  0.2343629E+03  0.1572743E+01  0.1823601E-04  0.2568095E+01
  0.1430000E+01  0.1880044E+04 -0.1568789E+01  0.1066158E-02 -0.3130132E+01  0.8278516E+04 -0.1744003E-01  0.1482062E-03 -0.3121784E+01  0.2368673E+03  0.1572803E+01  0.4993952E-04  0.1893867E+01
  0.1440000E+01  0.1898868E+04 -0.1568725E+01  0.1412196E-02  0.1996527E-01  0.8254688E+04 -0.1785169E-01  0.1121383E-03 -0.3091408E+01  0.2393964E+03  0.1572870E+01  0.3657342E-04 -0.1979754E+01
  0.1450000E+01  0.1917789E+04 -0.1568659E+01  0.2824761E-03 -0.2215761E-01  0.8231168E+04 -0.1827481E-01  0.8296970E-04 -0.3141233E+01  0.2418882E+03  0.1572935E+01  0.4951339E-04 -0.2074563E+01
  0.1460000E+01  0.1936802E+04 -0.1568592E+01  0.9454157E-03  0.3128100E+01  0.8207447E+04 -0.1871107E-01  0.3382528E-03  0.2614861E-01  0.2443815E+03  0.1573003E+01  0.6646733E-04 -0.1508881E+01
  0.1470000E+01  0.1955988E+04 -0.1568522E+01  0.3946947E-03 -0.3049798E+01  0.8183577E+04 -0.1916179E-01  0.2443069E-03  0.1961070E-01  0.2468944E+03  0.1573072E+01  0.2615178E-04 -0.2112525E+00
  0.1480000E+01  0.1975401E+04 -0.1568449E+01  0.8127326E-03 -0.3104475E+01  0.8159795E+04 -0.1960810E-01  0.1544168E-03  0.3605043E-01  0.2494369E+03  0.1573143E+01  0.3785624E-04  0.1838498E+01
  0.1490000E+01  0.1995104E+04 -0.1568375E+01  0.5296703E-03 -0.3793225E-01  0.8135734E+04 -0.2006576E-01  0.3508332E-03  0.3140446E+01  0.2520598E+03  0.1573219E+01  0.1101820E-04 -0.2161798E+01
  0.1500000E+01  0.2015117E+04 -0.1568297E+01  0.1100594E-03  0.2813505E+01  0.8111438E+04 -0.2053573E-01  0.1745668E-03 -0.3098302E+01  0.2547360E+03  0.1573295E+01  0.4582044E-04  0.1847488E+01
  0.1510000E+01  0.2035346E+04 -0.1568218E+01  0.7177034E-04  0.1328835E-01  0.8087059E+04 -0.2101811E-01  0.1660570E-03 -0.5341785E-01  0.2574538E+03  0.1573376E+01  0.8606443E-04 -0.2286108E+01
  0.1520000E+01  0.2055754E+04 -0.1568135E+01  0.2053996E-03 -0.3137240E+01  0.8062548E+04 -0.2151493E-01  0.1290061E-03  0.1830895E-01  0.2602006E+03  0.1573459E+01  0.9181218E-04 -0.2048380E+01
  0.1530000E+01  0.2076305E+04 -0.1568050E+01  0.1097198E-03  0.2933940E-01  0.8037818E+04 -0.2202791E-01  0.3372781E-03 -0.3127167E+01  0.2629648E+03  0.1573546E+01  0.8686752E-04  0.1546578E+00
  0.1540000E+01  0.2097051E+04 -0.1567961E+01  0.2335072E-04 -0.2367025E+01  0.8013037E+04 -0.2256070E-01  0.1927615E-03  0.3140685E+01  0.2657545E+03  0.1573633E+01  0.9169427E-04 -0.1631938E+01
  0.1550000E+01  0.2117967E+04 -0.1567873E+01  0.8539847E-03 -0.3119536E+01  0.7988431E+04 -0.2305078E-01  0.3875578E-03  0.3134999E+01  0.2685674E+03  0.1573721E+01  0.4794529E-04  0.2007197E+01
  0.1560000E+01  0.2138903E+04 -0.1567781E+01  0.7096252E-03 -0.3111098E+01  0.7963715E+04 -0.2354806E-01  0.6495848E-04 -0.3083753E+01  0.2713635E+03  0.1573814E+01  0.3010247E-04  0.1361363E+01
  0.1570000E+01  0.2159937E+04 -0.1567688E+01  0.4720819E-03  0.7449357E-02  0.7938955E+04 -0.2405766E-01  0.1987226E-03 -0.2755665E-02  0.2741674E+03  0.1573906E+01  0.5383236E-04  0.6716285E+00
  0.1580000E+01  0.2181158E+04 -0.1567592E+01  0.3994227E-02  0.3141324E+01  0.7913912E+04 -0.2457918E-01  0.3741506E-03 -0.1959588E-01  0.2770264E+03  0.1574004E+01  0.2052480E-04  0.9932643E+00
  0.1590000E+01  0.2202380E+04 -0.1567492E+01  0.2426640E-02 -0.1446789E-01  0.7888467E+04 -0.2511218E-01  0.2088387E-04 -0.2439399E+00  0.2798875E+03  0.1574103E+01  0.1651815E-03  0.1999499E+01
  0.1600000E+01  0.2223962E+04 -0.1567390E+01  0.3380410E-03 -0.1588293E+00  0.7863366E+04 -0.2565402E-01  0.2964745E-03 -0.3139004E+01  0.2828015E+03  0.1574204E+01  0.5502340E-04  0.7459399E+00
  0.1610000E+01  0.2245960E+04 -0.1567285E+01  0.2815940E-03  0.3082078E+01  0.7838614E+04 -0.2620468E-01  0.2027886E-04  0.3619742E-01  0.2857762E+03  0.1574309E+01  0.9991559E-04 -0.2195206E+01
  0.1620000E+01  0.2267887E+04 -0.1567176E+01  0.3266036E-04  0.1705495E+00  0.7813198E+04 -0.2676707E-01  0.7526937E-03  0.4093067E-02  0.2887455E+03  0.1574420E+01  0.9305143E-04  0.2301588E+01
  0.1630000E+01  0.2289958E+04 -0.1567064E+01  0.7545992E-03  0.3396512E-02  0.7787705E+04 -0.2734024E-01  0.1234035E-03  0.4782071E-01  0.2917401E+03  0.1574530E+01  0.3861669E-04 -0.2272056E+01
  0.1640000E+01  0.2312198E+04 -0.1566948E+01  0.2498783E-03  0.3130381E+01  0.7762314E+04 -0.2792438E-01  0.1585510E-03  0.5780001E-02  0.2947609E+03  0.1574646E+01  0.2738120E-04 -0.7630770E+00
  0.1650000E+01  0.2334632E+04 -0.1566830E+01  0.7829395E-04 -0.2915079E+01  0.7736620E+04 -0.2851992E-01  0.1731889E-03  0.3347578E-01  0.2978111E+03  0.1574766E+01  0.2992278E-05  0.5797153E+00