VARIABLES="w (rad/s)"
"abs(F   1   1)" "angle(F   1   1)"
"abs(F   1   2)" "angle(F   1   2)"
"abs(F   1   3)" "angle(F   1   3)"
"abs(F   1   4)" "angle(F   1   4)"
"abs(F   1   5)" "angle(F   1   5)"
"abs(F   1   6)" "angle(F   1   6)"
Zone t="FKforce - beta =   0.000",I=  2986,F=POINT
  0.1500000E+00  0.9846737E+02 -0.1570805E+01  0.9384155E-03 -0.1587906E-03  0.1004404E+05  0.1898985E-09  0.2098088E-04 -0.3139462E+01  0.8274072E+01  0.1570795E+01  0.3077970E-04 -0.3010993E+01
  0.1600000E+00  0.1050569E+03 -0.1570810E+01  0.2784729E-03  0.0000000E+00  0.1004250E+05 -0.5935240E-11  0.3814700E-04 -0.1171874E-02  0.8828424E+01  0.1570832E+01  0.1184094E-04 -0.2596296E+00
  0.1700000E+00  0.1116511E+03 -0.1570788E+01  0.6790161E-03 -0.3141329E+01  0.1004085E+05 -0.2968108E-11  0.1907447E-04  0.1015590E-01  0.9383321E+01  0.1570718E+01  0.5831516E-05 -0.2283857E+01
  0.1800000E+00  0.1182508E+03 -0.1570809E+01  0.1117706E-02 -0.3141273E+01  0.1003911E+05 -0.5937244E-11  0.9537686E-05 -0.1406157E-01  0.9938751E+01  0.1570856E+01  0.1528673E-04  0.3081120E+01
  0.1900000E+00  0.1248556E+03 -0.1570805E+01  0.1819611E-02 -0.3141298E+01  0.1003727E+05  0.0000000E+00  0.2479554E-04 -0.6009614E-03  0.1049477E+02  0.1570764E+01  0.9728530E-05 -0.2199593E+01
  0.2000000E+00  0.1314667E+03 -0.1570787E+01  0.1152039E-02 -0.3141282E+01  0.1003532E+05  0.3860665E-09  0.2479554E-04  0.6009614E-03  0.1105153E+02  0.1570794E+01  0.1250338E-04 -0.4145941E+00
  0.2100000E+00  0.1380833E+03 -0.1570800E+01  0.1514435E-02  0.7871536E-04  0.1003328E+05  0.0000000E+00  0.8201619E-04  0.2180229E-02  0.1160886E+02  0.1570816E+01  0.3848194E-05  0.1320398E+00
  0.2200000E+00  0.1447067E+03 -0.1570803E+01  0.4653931E-03 -0.3141464E+01  0.1003115E+05  0.1188392E-10  0.8583085E-04 -0.1909720E-02  0.1216690E+02  0.1570859E+01  0.1996756E-05 -0.1570796E+01
  0.2300000E+00  0.1513366E+03 -0.1570786E+01  0.7133488E-03 -0.3140507E+01  0.1002889E+05 -0.1782988E-10  0.8964539E-04 -0.3141260E+01  0.1272563E+02  0.1570757E+01  0.3856494E-05 -0.1473615E+00
  0.2400000E+00  0.1579738E+03 -0.1570777E+01  0.2403260E-03 -0.4960317E-03  0.1002657E+05  0.1188934E-10  0.1220705E-03 -0.3139884E+01  0.1328523E+02  0.1570817E+01  0.1433393E-04  0.2769194E+01
  0.2500000E+00  0.1646184E+03 -0.1570799E+01  0.8621218E-03  0.3140970E+01  0.1002411E+05  0.1189226E-10  0.3433357E-04  0.3132912E+01  0.1384561E+02  0.1570799E+01  0.4591585E-04  0.3063626E+01
  0.2600000E+00  0.1712704E+03 -0.1570806E+01  0.6675724E-03  0.1071428E-02  0.1002157E+05  0.1189527E-10  0.1144471E-04  0.3131176E+01  0.1440687E+02  0.1570831E+01  0.4921699E-04 -0.2502657E+00
  0.2700000E+00  0.1779305E+03 -0.1570799E+01  0.2285004E-02 -0.3140993E+01  0.1001895E+05 -0.3866975E-09  0.2098187E-04 -0.9942854E-02  0.1496890E+02  0.1570803E+01  0.1850724E-04 -0.1570796E+01
  0.2800000E+00  0.1845990E+03 -0.1570795E+01  0.1903534E-02 -0.3141279E+01  0.1001621E+05  0.0000000E+00  0.4387073E-04  0.3132761E+01  0.1553195E+02  0.1570781E+01  0.3603239E-04  0.2833182E+01
  0.2900000E+00  0.1912762E+03 -0.1570793E+01  0.5378724E-03 -0.3141039E+01  0.1001337E+05  0.0000000E+00  0.5722065E-04  0.3138988E+01  0.1609596E+02  0.1570824E+01  0.3845128E-04 -0.3015699E+01
  0.3000000E+00  0.1979624E+03 -0.1570798E+01  0.5798340E-03 -0.3141284E+01  0.1001044E+05  0.0000000E+00  0.1106263E-03  0.1346982E-02  0.1666085E+02  0.1570824E+01  0.1091078E-04  0.1927969E+01
  0.3100000E+00  0.2046582E+03 -0.1570798E+01  0.1045228E-02 -0.1197536E-02  0.1000740E+05  0.5956057E-11  0.1716624E-04  0.3138120E+01  0.1722681E+02  0.1570790E+01  0.1557325E-04  0.1947038E+01
  0.3200000E+00  0.2113629E+03 -0.1570796E+01  0.1052857E-02  0.3140574E+01  0.1000426E+05 -0.2383171E-10  0.9536790E-05 -0.3138468E+01  0.1779388E+02  0.1570789E+01  0.1554710E-04 -0.2231167E+01
  0.3300000E+00  0.2180782E+03 -0.1570797E+01  0.1190186E-02  0.3141593E+01  0.1000103E+05 -0.1191970E-10  0.3242515E-04  0.3137916E+01  0.1836196E+02  0.1570825E+01  0.1308536E-04 -0.1274977E+01
  0.3400000E+00  0.2248039E+03 -0.1570801E+01  0.1186372E-02  0.1406751E-02  0.9997692E+04  0.3577104E-10  0.4768395E-04  0.3124990E-02  0.1893121E+02  0.1570785E+01  0.3245915E-04  0.3095669E+01
  0.3500000E+00  0.2315405E+03 -0.1570791E+01  0.3816559E-05  0.3123983E-01  0.9994259E+04  0.0000000E+00  0.2098187E-04 -0.9942854E-02  0.1950158E+02  0.1570815E+01  0.1951185E-04  0.2123735E+00
  0.3600000E+00  0.2382876E+03 -0.1570798E+01  0.1525881E-03 -0.3140030E+01  0.9990721E+04 -0.1193200E-10  0.1144413E-04  0.3138988E+01  0.2007331E+02  0.1570801E+01  0.2980232E-04  0.2857799E+01
  0.3700000E+00  0.2450460E+03 -0.1570794E+01  0.4005432E-02  0.3141593E+01  0.9987096E+04  0.5968166E-11  0.1201633E-03  0.2480154E-02  0.2064617E+02  0.1570797E+01  0.3354169E-04  0.2882822E+01
  0.3800000E+00  0.2518166E+03 -0.1570796E+01  0.1117706E-02  0.3199659E-03  0.9983358E+04  0.5970400E-11  0.1049042E-03  0.0000000E+00  0.2122033E+02  0.1570791E+01  0.7046721E-05 -0.6231993E+00
  0.3900000E+00  0.2585988E+03 -0.1570800E+01  0.2124787E-02  0.6171453E-03  0.9979545E+04  0.0000000E+00  0.6485029E-04  0.3676454E-02  0.2179576E+02  0.1570786E+01  0.4586569E-04  0.6241881E-01
  0.4000000E+00  0.2653936E+03 -0.1570804E+01  0.1636505E-02  0.5827505E-03  0.9975612E+04  0.5975036E-11  0.1907349E-04  0.3141593E+01  0.2237259E+02  0.1570780E+01  0.1263000E-04  0.1877623E+01
  0.4100000E+00  0.2722015E+03 -0.1570794E+01  0.1007080E-02  0.3141237E+01  0.9971578E+04 -0.2988727E-10  0.9536766E-04  0.3139405E+01  0.2295081E+02  0.1570771E+01  0.4409620E-04  0.3040041E+01
  0.4200000E+00  0.2790219E+03 -0.1570798E+01  0.1461030E-02  0.8975193E-03  0.9967451E+04  0.7295513E-09  0.7057190E-04  0.3141593E+01  0.2353049E+02  0.1570791E+01  0.5308335E-04 -0.2896614E+01
  0.4300000E+00  0.2858563E+03 -0.1570790E+01  0.2670289E-03 -0.3140700E+01  0.9963215E+04  0.1196494E-10  0.9539723E-05  0.3116598E+01  0.2411163E+02  0.1570777E+01  0.7797281E-05 -0.2078899E+00
  0.4400000E+00  0.2927044E+03 -0.1570804E+01  0.9918564E-04 -0.8413263E-02  0.9958900E+04  0.2394025E-10  0.7438719E-04 -0.3137586E+01  0.2469418E+02  0.1570802E+01  0.4407843E-04 -0.3044077E+01
  0.4500000E+00  0.2995666E+03 -0.1570793E+01  0.3166237E-03  0.4894539E-02  0.9954468E+04  0.1197546E-10  0.4196319E-04 -0.3133070E+01  0.2527840E+02  0.1570781E+01  0.2884791E-04 -0.3013137E+01
  0.4600000E+00  0.3064436E+03 -0.1570806E+01  0.7209817E-03  0.3138286E+01  0.9949946E+04 -0.1198090E-10  0.1716872E-04 -0.1735937E-01  0.2586424E+02  0.1570806E+01  0.1094196E-04 -0.5123895E+00
  0.4700000E+00  0.3133351E+03 -0.1570794E+01  0.1529696E-02  0.3139956E+01  0.9945341E+04  0.0000000E+00  0.8201599E-04  0.3141593E+01  0.2645178E+02  0.1570787E+01  0.2789217E-04  0.1777412E+01
  0.4800000E+00  0.3202430E+03 -0.1570790E+01  0.7209778E-03  0.0000000E+00  0.9940620E+04  0.1199214E-10  0.1125355E-03  0.3135767E+01  0.2704086E+02  0.1570815E+01  0.3403316E-04  0.2472869E+01
  0.4900000E+00  0.3271656E+03 -0.1570796E+01  0.4043597E-03 -0.2948105E-02  0.9935788E+04 -0.2399594E-10  0.4196184E-04  0.3138752E+01  0.2763162E+02  0.1570808E+01  0.4418859E-04 -0.1203396E+00
  0.5000000E+00  0.3341055E+03 -0.1570794E+01  0.1449609E-03 -0.3135836E+01  0.9930877E+04  0.2400781E-10  0.3814716E-04 -0.3124990E-02  0.2822446E+02  0.1570785E+01  0.1903508E-04 -0.4468425E+00
  0.5100000E+00  0.3410608E+03 -0.1570797E+01  0.6294291E-03 -0.3137994E+01  0.9925870E+04  0.1200996E-10  0.3624041E-04 -0.6578852E-02  0.2881879E+02  0.1570805E+01  0.7843391E-05  0.2388441E+01
  0.5200000E+00  0.3480332E+03 -0.1570801E+01  0.3089905E-02 -0.3141477E+01  0.9920750E+04 -0.2403231E-10  0.5150121E-04 -0.3131176E+01  0.2941494E+02  0.1570784E+01  0.2240754E-04  0.3587707E+00
  0.5300000E+00  0.3550228E+03 -0.1570800E+01  0.8659432E-03 -0.3992270E-02  0.9915537E+04  0.2404495E-10  0.3815075E-04 -0.3127531E+01  0.3001321E+02  0.1570810E+01  0.4578397E-04  0.3123365E+01
  0.5400000E+00  0.3620311E+03 -0.1570793E+01  0.4959106E-03  0.0000000E+00  0.9910222E+04 -0.2405785E-10  0.7248339E-04 -0.3130902E+01  0.3061309E+02  0.1570783E+01  0.1685716E-04  0.1684187E+01
  0.5500000E+00  0.3690566E+03 -0.1570796E+01  0.9155770E-04  0.3131176E+01  0.9904808E+04  0.0000000E+00  0.2880098E-03 -0.3140558E+01  0.3121512E+02  0.1570796E+01  0.1025633E-04 -0.2409642E+01
  0.5600000E+00  0.3761009E+03 -0.1570796E+01  0.7019044E-03  0.3141083E+01  0.9899310E+04  0.1204218E-10  0.1144657E-04 -0.3120762E+01  0.3181912E+02  0.1570780E+01  0.1244710E-04  0.9110131E+00
  0.5700001E+00  0.3831635E+03 -0.1570793E+01  0.1098634E-02 -0.1193576E-02  0.9893691E+04  0.7590883E-09  0.3881173E-05 -0.2956245E+01  0.3242546E+02  0.1570782E+01  0.1174075E-04 -0.1061725E+01
  0.5800000E+00  0.3902459E+03 -0.1570795E+01  0.4234314E-03  0.0000000E+00  0.9887987E+04 -0.1205597E-10  0.2021800E-03 -0.3138350E+01  0.3303363E+02  0.1570815E+01  0.4604396E-04 -0.4242705E+00
  0.5900000E+00  0.3973488E+03 -0.1570800E+01  0.7019044E-03 -0.3141083E+01  0.9882174E+04  0.3618919E-10  0.4577951E-04  0.1171821E-01  0.3364389E+02  0.1570803E+01  0.1290162E-04  0.2030312E+01
  0.6000000E+00  0.4044715E+03 -0.1570798E+01  0.1113892E-02 -0.3140630E+01  0.9876293E+04  0.1207025E-10  0.1087195E-03  0.3289462E-02  0.3425651E+02  0.1570811E+01  0.2261115E-04  0.1655251E+01
  0.6100000E+00  0.4116143E+03 -0.1570799E+01  0.1487732E-03  0.0000000E+00  0.9870276E+04  0.1207760E-10  0.2288826E-04  0.3138988E+01  0.3487149E+02  0.1570787E+01  0.5236318E-04  0.2959601E+01
  0.6200000E+00  0.4187787E+03 -0.1570791E+01  0.1117706E-02  0.3141166E+01  0.9864187E+04  0.3625518E-10  0.6866665E-04  0.3133780E+01  0.3548852E+02  0.1570779E+01  0.1721171E-04 -0.3068805E+01
  0.6300000E+00  0.4259641E+03 -0.1570795E+01  0.8583072E-03 -0.3140759E+01  0.9857987E+04  0.1209266E-10  0.1335357E-04 -0.3123737E+01  0.3610797E+02  0.1570783E+01  0.3581327E-04 -0.2885874E+00
  0.6400000E+00  0.4331717E+03 -0.1570795E+01  0.3435296E-04 -0.3106884E+01  0.9851699E+04 -0.1210038E-10  0.1277925E-03  0.1399253E-02  0.3672982E+02  0.1570796E+01  0.1554710E-04  0.2948708E+01
  0.6500000E+00  0.4404009E+03 -0.1570799E+01  0.1148228E-02  0.3138893E+01  0.9845313E+04 -0.2421645E-10  0.1621250E-03  0.3139387E+01  0.3735410E+02  0.1570800E+01  0.2764448E-04 -0.7090940E+00
  0.6600000E+00  0.4476548E+03 -0.1570798E+01  0.2082825E-02  0.3141593E+01  0.9838810E+04 -0.1211623E-10  0.2861122E-04 -0.3133260E+01  0.3798083E+02  0.1570789E+01  0.1269005E-04 -0.2694750E+01
  0.6700001E+00  0.4549314E+03 -0.1570795E+01  0.1525881E-02  0.3139874E+01  0.9832218E+04 -0.1212435E-10  0.1049042E-03 -0.5681817E-03  0.3861022E+02  0.1570802E+01  0.2463482E-04 -0.1087671E+01
  0.6800001E+00  0.4622306E+03 -0.1570797E+01  0.9920046E-04  0.1922840E-01  0.9825531E+04  0.1213260E-10  0.1411438E-03 -0.3141170E+01  0.3924215E+02  0.1570785E+01  0.5001011E-04  0.2046170E+01
  0.6900001E+00  0.4695542E+03 -0.1570799E+01  0.7858282E-03 -0.1213592E-02  0.9818750E+04  0.2428197E-10  0.1773851E-03  0.3137224E+01  0.3987651E+02  0.1570793E+01  0.4584477E-04  0.5463308E-01
  0.7000000E+00  0.4769034E+03 -0.1570799E+01  0.6790162E-03  0.3141242E+01  0.9811864E+04  0.6074753E-10  0.5912889E-04  0.3135544E+01  0.4051383E+02  0.1570790E+01  0.4479478E-05 -0.1130954E+01
  0.7100000E+00  0.4842777E+03 -0.1570797E+01  0.1716655E-03  0.6944333E-02  0.9804890E+04  0.1215815E-10  0.4959110E-04 -0.1201923E-02  0.4115359E+02  0.1570802E+01  0.3238831E-04 -0.2800054E+01
  0.7200000E+00  0.4916782E+03 -0.1570799E+01  0.7362376E-03 -0.3139973E+01  0.9797813E+04  0.1216693E-10  0.3814697E-04  0.0000000E+00  0.4179649E+02  0.1570805E+01  0.3019574E-04 -0.3254959E+00
  0.7300000E+00  0.4991034E+03 -0.1570796E+01  0.2822877E-03  0.8445944E-03  0.9790643E+04 -0.2435168E-10  0.5149897E-04  0.3136963E+01  0.4244194E+02  0.1570788E+01  0.3280920E-04 -0.1532018E+00
  0.7400000E+00  0.5065566E+03 -0.1570798E+01  0.5302507E-03 -0.5395631E-02  0.9783367E+04  0.4873957E-10  0.4577641E-04 -0.1302083E-02  0.4309046E+02  0.1570798E+01  0.1759135E-04  0.9978302E+00
  0.7500000E+00  0.5140362E+03 -0.1570798E+01  0.1411510E-03  0.3131458E+01  0.9775998E+04  0.1219408E-10  0.1908922E-04  0.3100990E+01  0.4374182E+02  0.1570804E+01  0.3990147E-04  0.1072403E+01
  0.7600000E+00  0.5215428E+03 -0.1570797E+01  0.6332398E-03 -0.3141216E+01  0.9768543E+04 -0.3661016E-10  0.7629395E-05  0.0000000E+00  0.4439649E+02  0.1570783E+01  0.8348907E-05  0.2325901E+01
  0.7700000E+00  0.5290797E+03 -0.1570794E+01  0.1022340E-02  0.1632461E-02  0.9760971E+04  0.4885141E-10  0.1952450E-05  0.2926235E+01  0.4505402E+02  0.1570783E+01  0.3540355E-04 -0.2425297E+01
  0.7800000E+00  0.5366437E+03 -0.1570797E+01  0.1491549E-02 -0.3139834E+01  0.9753308E+04  0.0000000E+00  0.1373301E-03 -0.3137686E+01  0.4571443E+02  0.1570797E+01  0.1952450E-04  0.2926235E+01
  0.7900000E+00  0.5442373E+03 -0.1570799E+01  0.1705170E-02 -0.3141033E+01  0.9745558E+04  0.1223217E-10  0.1869218E-03 -0.3137447E+01  0.4637826E+02  0.1570799E+01  0.1569991E-04 -0.2376123E+00
  0.8000000E+00  0.5518605E+03 -0.1570796E+01  0.4272515E-03  0.5022279E-02  0.9737711E+04 -0.1566979E-08  0.1316081E-03 -0.4076065E-02  0.4704525E+02  0.1570797E+01  0.5081519E-04 -0.2921651E+01
  0.8099999E+00  0.5595141E+03 -0.1570798E+01  0.1773835E-02  0.6720429E-03  0.9729755E+04 -0.2450407E-10  0.4196590E-04  0.3127389E+01  0.4771559E+02  0.1570796E+01  0.5294194E-04  0.2907537E+01
  0.8200001E+00  0.5671987E+03 -0.1570793E+01  0.1304628E-02 -0.3140131E+01  0.9721727E+04  0.2452430E-10  0.9536760E-04  0.1874998E-02  0.4838919E+02  0.1570797E+01  0.1828377E-04 -0.1360614E+01
  0.8300000E+00  0.5749145E+03 -0.1570795E+01  0.1468659E-02  0.3140781E+01  0.9713561E+04  0.0000000E+00  0.1964571E-03 -0.1213592E-02  0.4906617E+02  0.1570798E+01  0.1201999E-03  0.3116796E+01
  0.8400000E+00  0.5826617E+03 -0.1570796E+01  0.1594544E-02 -0.3140845E+01  0.9705320E+04  0.0000000E+00  0.1049053E-03 -0.4545423E-02  0.4974666E+02  0.1570784E+01  0.1704818E-04 -0.2306730E+01
  0.8500000E+00  0.5904430E+03 -0.1570796E+01  0.1716614E-02  0.3141315E+01  0.9696975E+04 -0.2458690E-10  0.1754761E-03 -0.3140913E+01  0.5043068E+02  0.1570797E+01  0.1537754E-04  0.1051650E+01
  0.8600000E+00  0.5982568E+03 -0.1570793E+01  0.1380920E-02  0.0000000E+00  0.9688544E+04  0.2460830E-10  0.5340789E-04  0.8928334E-02  0.5111830E+02  0.1570797E+01  0.1966050E-05 -0.2449787E+00
  0.8700000E+00  0.6061035E+03 -0.1570800E+01  0.1297006E-03 -0.3137916E+01  0.9680014E+04  0.2462998E-10  0.2289098E-04 -0.3125969E+01  0.5180964E+02  0.1570799E+01  0.3749847E-04 -0.5262438E+00
  0.8800000E+00  0.6139843E+03 -0.1570797E+01  0.1026155E-02  0.3139734E+01  0.9671396E+04 -0.2465193E-10  0.1659445E-03 -0.3133691E+01  0.5250440E+02  0.1570800E+01  0.3630310E-04 -0.5914148E-01
  0.8900001E+00  0.6219012E+03 -0.1570796E+01  0.1232152E-02  0.2902469E-02  0.9662679E+04  0.7402251E-10  0.5915136E-04 -0.3113374E+01  0.5320347E+02  0.1570787E+01  0.5030632E-04 -0.1570796E+01
  0.9000000E+00  0.6298526E+03 -0.1570796E+01  0.3624026E-03 -0.5920983E-02  0.9653861E+04  0.4939341E-10  0.2746595E-03 -0.3038185E-02  0.5390547E+02  0.1570807E+01  0.1965038E-04  0.2192456E+01
  0.9100001E+00  0.6378397E+03 -0.1570798E+01  0.7057239E-03  0.3716199E-02  0.9644941E+04 -0.7415864E-10  0.9537346E-04 -0.1124953E-01  0.5461225E+02  0.1570796E+01  0.4108555E-04 -0.2761086E+01
  0.9200000E+00  0.6458637E+03 -0.1570795E+01  0.1056679E-02 -0.3835721E-02  0.9635928E+04  0.1237133E-09  0.2002752E-03 -0.3135640E+01  0.5532273E+02  0.1570789E+01  0.2790618E-04  0.2149321E+01
  0.9300001E+00  0.6539252E+03 -0.1570796E+01  0.9155770E-04 -0.3131176E+01  0.9626840E+04 -0.2476603E-10  0.1335144E-04  0.3141593E+01  0.5603701E+02  0.1570788E+01  0.4763496E-04  0.7659316E+00
  0.9400001E+00  0.6620236E+03 -0.1570795E+01  0.2594152E-03  0.1102897E-01  0.9617644E+04  0.4957942E-10  0.2880096E-03  0.3141593E+01  0.5675570E+02  0.1570798E+01  0.8115518E-04 -0.2870960E+01
  0.9500000E+00  0.6701620E+03 -0.1570798E+01  0.4959336E-04 -0.3131978E+01  0.9608342E+04 -0.2481371E-10  0.1773836E-03 -0.3140249E+01  0.5747836E+02  0.1570809E+01  0.6112496E-04 -0.2563311E+00
  0.9600000E+00  0.6783385E+03 -0.1570798E+01  0.1819618E-02 -0.2882592E-02  0.9598949E+04  0.2483799E-10  0.1659397E-03  0.2155169E-02  0.5820529E+02  0.1570804E+01  0.5496880E-04 -0.8038010E+00
  0.9700000E+00  0.6865546E+03 -0.1570796E+01  0.1735690E-02 -0.1648350E-02  0.9589463E+04 -0.7458768E-10  0.1735689E-03  0.3140219E+01  0.5893665E+02  0.1570802E+01  0.2796011E-04  0.1639066E+01
  0.9800000E+00  0.6948116E+03 -0.1570796E+01  0.5073561E-03 -0.2349620E-02  0.9579878E+04 -0.4977487E-10  0.2155369E-03  0.7743208E-02  0.5967218E+02  0.1570798E+01  0.9643435E-04  0.1488899E+00
  0.9900000E+00  0.7031095E+03 -0.1570795E+01  0.2441634E-03  0.1367102E-01  0.9570210E+04 -0.7473773E-10  0.3881173E-05  0.2956245E+01  0.6041198E+02  0.1570790E+01  0.8377496E-04  0.1753959E+01
  0.1000000E+01  0.7114491E+03 -0.1570800E+01  0.9155553E-04 -0.3133780E+01  0.9560443E+04  0.7481408E-10  0.4959121E-04  0.3139189E+01  0.6115661E+02  0.1570797E+01  0.2265353E-04 -0.7109094E+00
  0.1010000E+01  0.7198300E+03 -0.1570794E+01  0.7476991E-03 -0.7015191E-02  0.9550587E+04  0.0000000E+00  0.1201651E-03 -0.5952311E-02  0.6190562E+02  0.1570790E+01  0.2014178E-04 -0.1858852E+01
  0.1020000E+01  0.7282551E+03 -0.1570798E+01  0.1235978E-02 -0.5015390E-02  0.9540616E+04 -0.4997970E-10  0.1258977E-03  0.1420359E-01  0.6265952E+02  0.1570795E+01  0.1512831E-04 -0.2428693E+01
  0.1030000E+01  0.7367236E+03 -0.1570796E+01  0.9193421E-03  0.3141333E+01  0.9530571E+04 -0.5003238E-10  0.1153315E-04  0.1243550E+00  0.6341806E+02  0.1570792E+01  0.2613594E-04  0.9473655E+00
  0.1040000E+01  0.7452368E+03 -0.1570794E+01  0.1060487E-02 -0.1124100E-02  0.9520422E+04  0.5008572E-10  0.9918794E-04 -0.3130776E+01  0.6418151E+02  0.1570791E+01  0.1445975E-04 -0.1837771E+01
  0.1050000E+01  0.7537944E+03 -0.1570797E+01  0.3051766E-03  0.3139249E+01  0.9510197E+04 -0.7520935E-10  0.1729973E-04  0.1243550E+00  0.6494960E+02  0.1570798E+01  0.2582085E-04 -0.2401914E+01
  0.1060000E+01  0.7623977E+03 -0.1570798E+01  0.2937704E-03 -0.1623234E-01  0.9499847E+04  0.5019420E-10  0.5741880E-05 -0.3058451E+01  0.6572232E+02  0.1570802E+01  0.2148977E-04  0.2180673E+00
  0.1070000E+01  0.7710480E+03 -0.1570794E+01  0.3013612E-03 -0.7911391E-03  0.9489430E+04  0.5024929E-10  0.1918084E-04 -0.3035740E+01  0.6650067E+02  0.1570803E+01  0.3117750E-04  0.1259928E+01
  0.1080000E+01  0.7797449E+03 -0.1570796E+01  0.1159673E-02 -0.3138714E+01  0.9478908E+04  0.2515254E-10  0.8583740E-04  0.1249935E-01  0.6728405E+02  0.1570791E+01  0.2765656E-04  0.8097836E+00
  0.1090000E+01  0.7884899E+03 -0.1570793E+01  0.1029979E-03 -0.4629597E-02  0.9468290E+04  0.2518074E-10  0.4959106E-04  0.0000000E+00  0.6807211E+02  0.1570793E+01  0.7436864E-04 -0.1647814E+01
  0.1100000E+01  0.7972831E+03 -0.1570795E+01  0.4997335E-03  0.5725128E-02  0.9457591E+04 -0.5041846E-10  0.5531940E-04  0.3126508E+01  0.6886575E+02  0.1570798E+01  0.2904502E-04  0.1732457E+00
  0.1110000E+01  0.8061251E+03 -0.1570796E+01  0.1216889E-02 -0.3918495E-03  0.9446788E+04  0.0000000E+00  0.1277929E-03 -0.3138794E+01  0.6966460E+02  0.1570805E+01  0.2486878E-04  0.3064821E+01
  0.1120000E+01  0.8150190E+03 -0.1570795E+01  0.2071381E-02 -0.1151013E-03  0.9435890E+04  0.0000000E+00  0.6867490E-04 -0.1735937E-01  0.7046900E+02  0.1570799E+01  0.8741748E-04  0.1439506E+01
  0.1130000E+01  0.8239618E+03 -0.1570796E+01  0.2902986E-02 -0.9855450E-03  0.9424912E+04  0.5059327E-10  0.8393181E-04 -0.1420359E-01  0.7127899E+02  0.1570796E+01  0.6460088E-04  0.2914517E+01
  0.1140000E+01  0.8329568E+03 -0.1570795E+01  0.1411510E-03 -0.1013479E-01  0.9413842E+04  0.0000000E+00  0.1010996E-03  0.3127443E+01  0.7209431E+02  0.1570787E+01  0.1534979E-04  0.1089420E+00
  0.1150000E+01  0.8420029E+03 -0.1570796E+01  0.7476881E-03 -0.4464256E-02  0.9402676E+04 -0.1014258E-09  0.1940587E-05 -0.2956245E+01  0.7291512E+02  0.1570794E+01  0.3254043E-04  0.2533268E+01
  0.1160000E+01  0.8511021E+03 -0.1570796E+01  0.8392444E-03  0.5113592E-02  0.9391402E+04  0.2538690E-10  0.2803805E-03 -0.3140317E+01  0.7374203E+02  0.1570795E+01  0.3455692E-04 -0.3027507E+01
  0.1170000E+01  0.8602559E+03 -0.1570799E+01  0.8888265E-03  0.3139447E+01  0.9380062E+04  0.0000000E+00  0.5912829E-04  0.4032236E-02  0.7457431E+02  0.1570803E+01  0.1146642E-04  0.6241881E-01
  0.1180000E+01  0.8694630E+03 -0.1570798E+01  0.3357018E-03 -0.7102153E-02  0.9368613E+04  0.0000000E+00  0.3070850E-03  0.3493775E-02  0.7541300E+02  0.1570798E+01  0.8216037E-04 -0.1360311E+01
  0.1190000E+01  0.8787260E+03 -0.1570797E+01  0.1640569E-03 -0.1744009E-01  0.9357082E+04  0.0000000E+00  0.3795630E-03  0.3139708E+01  0.7625732E+02  0.1570793E+01  0.1869421E-04 -0.9119903E+00
  0.1200000E+01  0.8880456E+03 -0.1570795E+01  0.1018533E-02 -0.4213458E-02  0.9345444E+04  0.0000000E+00  0.2481387E-04  0.3844259E-01  0.7710743E+02  0.1570797E+01  0.2168561E-04  0.2556449E+00
  0.1210000E+01  0.8974209E+03 -0.1570796E+01  0.9803913E-03  0.3136243E+01  0.9333729E+04  0.5108753E-10  0.2100825E-04  0.5109186E-01  0.7796421E+02  0.1570793E+01  0.4358041E-04  0.1259426E+01
  0.1220000E+01  0.9068527E+03 -0.1570797E+01  0.3013988E-03 -0.3125771E+01  0.9321935E+04 -0.7672825E-10  0.2269745E-03  0.3141593E+01  0.7882689E+02  0.1570798E+01  0.1652500E-04 -0.2335789E+01
  0.1230000E+01  0.9163449E+03 -0.1570797E+01  0.1064307E-02 -0.3138008E+01  0.9310025E+04 -0.2560880E-10  0.2536792E-03 -0.3759381E-02  0.7969604E+02  0.1570795E+01  0.4313993E-04  0.1980042E+01
  0.1240000E+01  0.9258944E+03 -0.1570796E+01  0.8392470E-03  0.5681757E-02  0.9298036E+04  0.2564182E-10  0.8010900E-04  0.2976182E-02  0.8057162E+02  0.1570802E+01  0.1008384E-03 -0.5525844E+00
  0.1250000E+01  0.9355028E+03 -0.1570797E+01  0.2090454E-02  0.4562043E-03  0.9285966E+04 -0.2567515E-10  0.7629404E-04  0.3140030E+01  0.8145320E+02  0.1570796E+01  0.3532540E-04 -0.7137507E+00
  0.1260000E+01  0.9451736E+03 -0.1570798E+01  0.8354417E-03 -0.3134173E+01  0.9273792E+04  0.2570886E-10  0.6294973E-04  0.1515036E-01  0.8234175E+02  0.1570796E+01  0.5260845E-04  0.1388511E+01
  0.1270000E+01  0.9549048E+03 -0.1570794E+01  0.1766208E-02  0.3139703E+01  0.9261539E+04 -0.2574287E-10  0.5727011E-05  0.4164258E-01  0.8323697E+02  0.1570798E+01  0.7172398E-05 -0.1839964E+01
  0.1280000E+01  0.9646981E+03 -0.1570794E+01  0.3242777E-03  0.3128358E+01  0.9249201E+04  0.5155442E-10  0.1106326E-03 -0.3130817E+01  0.8413893E+02  0.1570797E+01  0.1474537E-04  0.1172274E+01
  0.1290000E+01  0.9745540E+03 -0.1570795E+01  0.1026172E-02  0.3135552E+01  0.9236761E+04  0.5162385E-10  0.2269756E-03  0.3138441E+01  0.8504741E+02  0.1570799E+01  0.7751831E-04  0.1844871E+01
  0.1300000E+01  0.9844716E+03 -0.1570798E+01  0.2365233E-03  0.1008030E-01  0.9224226E+04  0.0000000E+00  0.3051781E-04 -0.3137686E+01  0.8596290E+02  0.1570798E+01  0.2695817E-04 -0.6788846E+00
  0.1310000E+01  0.9944563E+03 -0.1570796E+01  0.2021793E-02  0.1886790E-02  0.9211614E+04 -0.5176478E-10  0.2231598E-03  0.3141593E+01  0.8688528E+02  0.1570799E+01  0.5034247E-04  0.2129898E+01
  0.1320000E+01  0.1004504E+04 -0.1570796E+01  0.6752150E-03 -0.3135237E+01  0.9198933E+04  0.0000000E+00  0.4960539E-04 -0.2403383E-01  0.8781465E+02  0.1570794E+01  0.2410859E-04  0.2065408E+01
  0.1330000E+01  0.1014617E+04 -0.1570796E+01  0.2063754E-02 -0.1617374E-02  0.9186136E+04  0.0000000E+00  0.3299761E-03 -0.3136174E+01  0.8875143E+02  0.1570801E+01  0.4717134E-04  0.2077404E+01
  0.1340000E+01  0.1024798E+04 -0.1570796E+01  0.7515076E-03 -0.3135882E+01  0.9173269E+04  0.5198116E-10  0.2613156E-03  0.3133381E+01  0.8969499E+02  0.1570798E+01  0.4311884E-04 -0.5726664E+00
  0.1350000E+01  0.1035045E+04 -0.1570798E+01  0.1487737E-02  0.2564097E-02  0.9160296E+04  0.0000000E+00  0.1144410E-03 -0.1041666E-02  0.9064633E+02  0.1570791E+01  0.5623091E-04 -0.5585993E+00
  0.1360000E+01  0.1045361E+04 -0.1570797E+01  0.3929184E-03  0.3136738E+01  0.9147251E+04 -0.2606451E-10  0.8396812E-04 -0.3265884E-01  0.9160481E+02  0.1570795E+01  0.6634722E-04 -0.1892547E+01
  0.1370000E+01  0.1055745E+04 -0.1570795E+01  0.3512633E-03  0.3099498E+01  0.9134112E+04 -0.5220399E-10  0.3852853E-03  0.2165838E-02  0.9257056E+02  0.1570793E+01  0.7603273E-05 -0.7188300E+00
  0.1380000E+01  0.1066199E+04 -0.1570796E+01  0.2899186E-03 -0.3289462E-02  0.9120887E+04  0.0000000E+00  0.6677253E-04 -0.2142529E-01  0.9354441E+02  0.1570793E+01  0.2132481E-05  0.2677945E+01
  0.1390000E+01  0.1076721E+04 -0.1570797E+01  0.5394797E-05 -0.7853982E+00  0.9107594E+04  0.1308900E-09  0.2155325E-03  0.3137168E+01  0.9452571E+02  0.1570795E+01  0.5438505E-04  0.1782808E+01
  0.1400000E+01  0.1087315E+04 -0.1570796E+01  0.8506780E-03 -0.1121076E-02  0.9094193E+04  0.5243314E-10  0.9584308E-05 -0.9966865E-01  0.9551459E+02  0.1570800E+01  0.9922338E-04  0.2883816E-01
  0.1410000E+01  0.1097979E+04 -0.1570796E+01  0.2022245E-03 -0.2122323E-01  0.9080715E+04  0.1575329E-09  0.2288849E-04 -0.5208286E-02  0.9651077E+02  0.1570793E+01  0.3913625E-04  0.2256954E+01
  0.1420000E+01  0.1108718E+04 -0.1570795E+01  0.4539793E-03 -0.3130038E+01  0.9067139E+04  0.1051792E-09  0.1697622E-03 -0.3131762E+01  0.9751553E+02  0.1570799E+01  0.2608696E-04 -0.2108081E+01
  0.1430000E+01  0.1119525E+04 -0.1570796E+01  0.1075746E-02 -0.3139820E+01  0.9053500E+04  0.2106753E-09  0.1049085E-03 -0.3132502E+01  0.9852762E+02  0.1570793E+01  0.1799389E-04  0.2582993E+01
  0.1440000E+01  0.1130412E+04 -0.1570795E+01  0.1411439E-02  0.1351351E-02  0.9039765E+04  0.5274885E-10  0.6679168E-04 -0.3109461E+01  0.9954850E+02  0.1570799E+01  0.2355884E-04 -0.2514284E+01
  0.1450000E+01  0.1141370E+04 -0.1570796E+01  0.3051817E-03 -0.6249919E-02  0.9025939E+04 -0.5282964E-10  0.1659421E-03  0.3135846E+01  0.1005773E+03  0.1570799E+01  0.5898150E-04 -0.1969319E+01
  0.1460000E+01  0.1152404E+04 -0.1570797E+01  0.9231628E-03 -0.3137977E+01  0.9012049E+04 -0.5291107E-10  0.3528600E-03 -0.1689188E-02  0.1016141E+03  0.1570798E+01  0.1274369E-04 -0.1266795E+01
  0.1470000E+01  0.1163510E+04 -0.1570797E+01  0.3624765E-03 -0.3120543E+01  0.8998052E+04 -0.1059868E-09  0.2288844E-03 -0.4687466E-02  0.1026595E+03  0.1570796E+01  0.3438522E-04  0.5880026E+00
  0.1480000E+01  0.1174694E+04 -0.1570796E+01  0.7629932E-03 -0.3129718E+01  0.8983988E+04 -0.1061527E-09  0.1449609E-03  0.5756516E-02  0.1037128E+03  0.1570793E+01  0.3326345E-04  0.1922017E+01
  0.1490000E+01  0.1185954E+04 -0.1570796E+01  0.4844703E-03 -0.3936987E-02  0.8969837E+04  0.0000000E+00  0.3261567E-03  0.3140862E+01  0.1047743E+03  0.1570797E+01  0.3363055E-04 -0.1741772E+01
  0.1500000E+01  0.1197291E+04 -0.1570796E+01  0.1070507E-03  0.3074728E+01  0.8955613E+04 -0.5324450E-10  0.1506806E-03  0.3140801E+01  0.1058449E+03  0.1570795E+01  0.1905112E-04  0.2347345E+01
  0.1510000E+01  0.1208704E+04 -0.1570797E+01  0.1030145E-03  0.1851640E-01  0.8941291E+04 -0.5332979E-10  0.1621282E-03 -0.6617550E-02  0.1069230E+03  0.1570795E+01  0.5748262E-04 -0.3046051E+01
  0.1520000E+01  0.1220200E+04 -0.1570796E+01  0.2212530E-03  0.3139437E+01  0.8926891E+04  0.0000000E+00  0.1239846E-03  0.1057653E-01  0.1080108E+03  0.1570796E+01  0.1041908E-03 -0.1985303E+01
  0.1530000E+01  0.1231771E+04 -0.1570797E+01  0.8019942E-04  0.4758310E-01  0.8912409E+04 -0.1070052E-09  0.3318817E-03 -0.3137282E+01  0.1091070E+03  0.1570799E+01  0.9596163E-04  0.4636476E+00
  0.1540000E+01  0.1243424E+04 -0.1570795E+01  0.2790618E-04 -0.2846863E+01  0.8897859E+04  0.1071802E-09  0.1468728E-03  0.3131853E+01  0.1102119E+03  0.1570796E+01  0.9663485E-04 -0.1610282E+01
  0.1550000E+01  0.1255154E+04 -0.1570797E+01  0.9117128E-03 -0.3141070E+01  0.8883222E+04  0.5367840E-10  0.3662116E-03  0.3139640E+01  0.1113253E+03  0.1570794E+01  0.8535019E-04  0.1819162E+01
  0.1560000E+01  0.1266965E+04 -0.1570796E+01  0.7706066E-03  0.3131692E+01  0.8868502E+04  0.1075350E-09  0.5341427E-04 -0.3123737E+01  0.1124477E+03  0.1570798E+01  0.4235001E-04  0.1435269E+01
  0.1570000E+01  0.1278855E+04 -0.1570797E+01  0.4654050E-03  0.7172008E-02  0.8853705E+04 -0.1077147E-09  0.2174483E-03 -0.9868100E-02  0.1135792E+03  0.1570795E+01  0.6592823E-04  0.8032991E+00
  0.1580000E+01  0.1290829E+04 -0.1570797E+01  0.3921510E-02  0.3140985E+01  0.8838820E+04  0.5394805E-10  0.4272485E-03 -0.3348202E-02  0.1147196E+03  0.1570799E+01  0.1434480E-04 -0.3743336E+00
  0.1590000E+01  0.1302881E+04 -0.1570797E+01  0.2410889E-02 -0.1977848E-03  0.8823859E+04  0.0000000E+00  0.3624041E-04 -0.3135014E+01  0.1158690E+03  0.1570799E+01  0.1334599E-03  0.2111216E+01
  0.1600000E+01  0.1315016E+04 -0.1570797E+01  0.3242549E-03 -0.5882285E-02  0.8808834E+04 -0.3789219E-09  0.3585816E-03  0.3140928E+01  0.1170277E+03  0.1570794E+01  0.5479739E-04  0.8007815E+00
  0.1610000E+01  0.1327235E+04 -0.1570797E+01  0.2709509E-03  0.3113431E+01  0.8793729E+04  0.1626741E-09  0.0000000E+00  0.0000000E+00  0.1181956E+03  0.1570795E+01  0.8142928E-04 -0.2349983E+01
  0.1620000E+01  0.1339535E+04 -0.1570797E+01  0.5734748E-04  0.6656817E-01  0.8778527E+04 -0.5431858E-10  0.7581711E-03  0.0000000E+00  0.1193723E+03  0.1570799E+01  0.8850983E-04  0.2361909E+01
  0.1630000E+01  0.1351916E+04 -0.1570797E+01  0.6752075E-03  0.4237263E-02  0.8763260E+04  0.3373619E-08  0.1363773E-03  0.5244707E-02  0.1205582E+03  0.1570795E+01  0.2736003E-04 -0.2921978E+01
  0.1640000E+01  0.1364380E+04 -0.1570796E+01  0.2595260E-03 -0.3110353E+01  0.8747926E+04  0.1090172E-09  0.1621422E-03 -0.1470482E-01  0.1217534E+03  0.1570795E+01  0.2591754E-04 -0.4883339E+00
  0.1650000E+01  0.1376928E+04 -0.1570797E+01  0.8775877E-04 -0.3119857E+01  0.8732500E+04  0.0000000E+00  0.1649858E-03  0.1445086E-02  0.1229574E+03  0.1570798E+01  0.3844384E-05  0.1051650E+01