VARIABLES="w (rad/s)"
"A   1   1" "B   1   1"
"A   1   2" "B   1   2"
"A   1   3" "B   1   3"
"A   1   4" "B   1   4"
"A   1   5" "B   1   5"
"A   1   6" "B   1   6"
Zone t="Motion of body    1 in DoF   1",I=  2986,F=POINT
  0.1500000E+00  0.3287446E+03  0.8412527E-03  0.2483527E-06 -0.2728484E-11  0.5419055E-04  0.1392301E-05  0.2483527E-07  0.1136868E-11 -0.5847853E+02 -0.1014933E-03  0.1097719E-04  0.2034994E-10
  0.1600000E+00  0.3293008E+03  0.1021532E-02  0.0000000E+00 -0.4547474E-11  0.4905742E-04  0.9931300E-06 -0.3492460E-07  0.1705303E-11 -0.5855042E+02 -0.1231294E-03 -0.1396984E-04 -0.4706635E-10
  0.1700000E+00  0.3290126E+03  0.1228244E-02 -0.4382694E-06 -0.1364242E-11  0.6379012E-04  0.1930001E-05  0.0000000E+00 -0.2046363E-11 -0.5854300E+02 -0.1484200E-03 -0.7231446E-06  0.1182343E-10
  0.1800000E+00  0.3285677E+03  0.1461656E-02  0.4553132E-06 -0.1364242E-11  0.5289912E-04  0.2358321E-05  0.1655685E-06 -0.7958079E-12 -0.5858385E+02 -0.1766910E-03 -0.1448724E-06  0.7366907E-10
  0.1900000E+00  0.3289620E+03  0.1721372E-02  0.0000000E+00 -0.9094947E-12  0.2133219E-04  0.1223563E-05  0.1176408E-06  0.4547474E-12 -0.5855061E+02 -0.2080451E-03 -0.8215246E-05  0.1637090E-10
  0.2000000E+00  0.3296340E+03  0.2013742E-02  0.3725290E-06  0.1818989E-11  0.5513430E-05  0.1357180E-06  0.7450581E-07 -0.1591616E-11 -0.5866755E+02 -0.2434666E-03  0.6742775E-05  0.8185452E-11
  0.2100000E+00  0.3300324E+03  0.2337285E-02  0.0000000E+00  0.2728484E-11  0.2717688E-04  0.7573326E-06  0.3547895E-07 -0.3865352E-11 -0.5871130E+02 -0.2826264E-03 -0.5641154E-05 -0.1273293E-09
  0.2200000E+00  0.3305031E+03  0.2694819E-02 -0.2709302E-06 -0.5456968E-11  0.3542412E-04  0.1461770E-05  0.2370639E-06  0.6821210E-11 -0.5877717E+02 -0.3260686E-03 -0.5960464E-05 -0.4320100E-10
  0.2300000E+00  0.3309468E+03  0.3087806E-02 -0.2591506E-06 -0.5456968E-11  0.4671190E-04  0.2354211E-05  0.3239383E-07  0.0000000E+00 -0.5885220E+02 -0.3736154E-03 -0.2154189E-04 -0.1632543E-09
  0.2400000E+00  0.3308723E+03  0.3517143E-02  0.3725290E-06  0.2728484E-11  0.2682209E-04  0.1410147E-05  0.9313226E-07 -0.1818989E-11 -0.5888792E+02 -0.4257561E-03 -0.1490116E-05 -0.1437002E-09
  0.2500000E+00  0.3305618E+03  0.3984745E-02  0.1192093E-06 -0.1000444E-10  0.4014373E-04  0.2038506E-05  0.2086163E-06  0.6366463E-11 -0.5877558E+02 -0.4818679E-03 -0.1937151E-04  0.1300577E-09
  0.2600000E+00  0.3303817E+03  0.4494127E-02 -0.2865608E-06  0.0000000E+00  0.4928846E-05  0.2180323E-06  0.1719365E-06 -0.2728484E-11 -0.5874570E+02 -0.5436426E-03 -0.1094662E-04  0.3547029E-10
  0.2700000E+00  0.3303470E+03  0.5047239E-02  0.5518948E-07 -0.1818989E-11 -0.8857912E-05 -0.3690238E-06  0.0000000E+00 -0.2728484E-11 -0.5875769E+02 -0.6106825E-03 -0.2676690E-05  0.3092282E-10
  0.2800000E+00  0.3302219E+03  0.5645839E-02 -0.4257475E-06  0.2000888E-10 -0.1918525E-04 -0.1406773E-05  0.2660922E-07 -0.4547474E-12 -0.5872687E+02 -0.6830181E-03 -0.6918396E-05  0.3947207E-09
  0.2900000E+00  0.3302009E+03  0.6292412E-02 -0.5138332E-07  0.2182787E-10  0.1189524E-04  0.9816085E-06 -0.3853749E-07  0.4547474E-11 -0.5873360E+02 -0.7612693E-03 -0.1012251E-04 -0.8367351E-10
  0.3000000E+00  0.3303403E+03  0.6990899E-02 -0.1490116E-06  0.3637979E-11 -0.1681348E-04 -0.4016929E-06 -0.3725290E-07 -0.3637979E-11 -0.5877052E+02 -0.8460879E-03  0.5140901E-05 -0.7094059E-10
  0.3100000E+00  0.3307618E+03  0.7744852E-02  0.4806826E-07 -0.1455192E-10 -0.5280299E-04 -0.2517765E-05  0.1201707E-07  0.7275958E-11 -0.5885853E+02 -0.9377511E-03 -0.1326684E-04 -0.1227818E-09
  0.3200000E+00  0.3310322E+03  0.8554226E-02 -0.4656613E-07 -0.5093170E-10 -0.1781154E-04 -0.1063629E-05  0.2095476E-06  0.7275958E-11 -0.5892138E+02 -0.1036269E-02 -0.3073364E-05  0.1609806E-09
  0.3300000E+00  0.3312607E+03  0.9416088E-02 -0.4967054E-06  0.2910383E-10 -0.2022945E-04 -0.1418723E-05 -0.1467538E-06  0.0000000E+00 -0.5889626E+02 -0.1140194E-02 -0.1194351E-04  0.1418812E-09
  0.3400000E+00  0.3313165E+03  0.1033984E-01  0.3067886E-06  0.3637979E-11  0.9926803E-05  0.6392693E-06  0.1095674E-07  0.0000000E+00 -0.5887445E+02 -0.1251637E-02 -0.1071569E-04 -0.2582965E-09
  0.3500000E+00  0.3315353E+03  0.1132676E-01 -0.1702990E-06  0.0000000E+00  0.1375164E-04  0.4972098E-06  0.1915864E-06  0.0000000E+00 -0.5891141E+02 -0.1371498E-02  0.1247440E-04 -0.2601155E-09
  0.3600000E+00  0.3316310E+03  0.1237758E-01  0.1655685E-06 -0.2546585E-10  0.3774961E-04  0.2842502E-05 -0.1034803E-07 -0.3637979E-11 -0.5892127E+02 -0.1498954E-02 -0.9561578E-05  0.3074092E-09
  0.3700000E+00  0.3317224E+03  0.1349306E-01 -0.8054682E-06 -0.5456968E-10  0.1538444E-04  0.1197292E-05 -0.6041011E-07 -0.7275958E-11 -0.5891817E+02 -0.1633854E-02 -0.2114354E-05 -0.2182787E-09
  0.3800000E+00  0.3317127E+03  0.1467928E-01 -0.7842716E-07 -0.4001777E-10  0.2941019E-05  0.6050213E-06 -0.1960679E-07  0.1273293E-10 -0.5891675E+02 -0.1777929E-02  0.2744951E-05  0.2983143E-09
  0.3900000E+00  0.3317241E+03  0.1593987E-01 -0.5349135E-06  0.4365575E-10  0.1788139E-04  0.1557928E-05  0.3820811E-07 -0.1091394E-10 -0.5892616E+02 -0.1931216E-02 -0.1623845E-05  0.1818989E-10
  0.4000000E+00  0.3317844E+03  0.1727719E-01  0.0000000E+00 -0.3637979E-10  0.5401671E-05  0.1172019E-05 -0.1862645E-07  0.9094947E-11 -0.5894320E+02 -0.2093813E-02 -0.1132488E-04 -0.1564331E-09
  0.4100000E+00  0.3317948E+03  0.1869318E-01  0.4361316E-06 -0.3637979E-10 -0.6723695E-05 -0.1595399E-06  0.0000000E+00 -0.1455192E-10 -0.5897112E+02 -0.2266166E-02  0.2013474E-04  0.9349606E-09
  0.4200000E+00  0.3317406E+03  0.2019309E-01 -0.4967054E-06 -0.7275958E-11 -0.1944247E-04 -0.2216202E-05  0.1241764E-06 -0.1818989E-11 -0.5898437E+02 -0.2449151E-02 -0.1699442E-04  0.1007720E-08
  0.4300000E+00  0.3316875E+03  0.2177558E-01 -0.6930772E-07  0.7275958E-10  0.1594078E-05  0.3336427E-06  0.0000000E+00  0.1818989E-10 -0.5896465E+02 -0.2641054E-02 -0.5163426E-05 -0.4038156E-09
  0.4400000E+00  0.3315760E+03  0.2344386E-01 -0.2709302E-06  0.0000000E+00 -0.1994724E-04 -0.2073808E-05 -0.6773255E-07 -0.2728484E-10 -0.5890971E+02 -0.2842799E-02  0.2963299E-04  0.1418812E-09
  0.4500000E+00  0.3315607E+03  0.2520522E-01  0.3311369E-06  0.2182787E-10 -0.7914173E-05 -0.9407086E-06 -0.4967054E-07  0.1818989E-10 -0.5890356E+02 -0.3056646E-02 -0.5761783E-05 -0.3201421E-09
  0.4600000E+00  0.3315693E+03  0.2706520E-01  0.0000000E+00 -0.2910383E-10 -0.1554904E-04 -0.2372566E-05 -0.3239383E-07  0.3637979E-11 -0.5892031E+02 -0.3283652E-02  0.5506951E-06 -0.8258212E-09
  0.4700000E+00  0.3316778E+03  0.2902877E-01 -0.3804552E-06  0.5820766E-10 -0.3731631E-04 -0.3337984E-05  0.7926150E-07  0.7275958E-11 -0.5894338E+02 -0.3522962E-02 -0.7894445E-05  0.8003553E-09
  0.4800000E+00  0.3318915E+03  0.3109679E-01  0.0000000E+00 -0.8731149E-10  0.1406297E-04  0.1613167E-05 -0.4656613E-07 -0.5820766E-10 -0.5896374E+02 -0.3774302E-02 -0.1263494E-04  0.2946763E-09
  0.4900000E+00  0.3320931E+03  0.3327137E-01 -0.1216421E-06 -0.1891749E-09 -0.5930054E-05 -0.5223337E-06  0.9123160E-07  0.2910383E-10 -0.5899035E+02 -0.4038927E-02  0.8362897E-05 -0.7203198E-09
  0.5000000E+00  0.3323212E+03  0.3556085E-01  0.2980232E-06  0.5820766E-10  0.1999736E-04  0.2965004E-05 -0.1043081E-06 -0.1091394E-10 -0.5902205E+02 -0.4317886E-02  0.1835823E-04  0.1455192E-10
  0.5100000E+00  0.3325561E+03  0.3796926E-01 -0.5843593E-06 -0.1018634E-09  0.2933483E-04  0.3877358E-05  0.2191347E-06 -0.1455192E-10 -0.5905597E+02 -0.4611142E-02 -0.1168719E-05  0.2022716E-08
  0.5200000E+00  0.3328026E+03  0.4050050E-01 -0.1719365E-06 -0.5820766E-10  0.4352859E-04  0.5975293E-05 -0.1289524E-06 -0.5093170E-10 -0.5909201E+02 -0.4919874E-02 -0.4842877E-05  0.1484295E-08
  0.5300000E+00  0.3330582E+03  0.4316059E-01 -0.7310004E-06  0.1455192E-09  0.5378476E-04  0.4677604E-05  0.9840390E-07 -0.3637979E-11 -0.5913003E+02 -0.5244490E-02  0.1043081E-04  0.1571607E-08
  0.5400000E+00  0.3332787E+03  0.4595046E-01  0.2759474E-06  0.1455192E-10  0.1931632E-06  0.1636166E-05 -0.4139211E-07 -0.3637979E-11 -0.5917617E+02 -0.5585308E-02 -0.2171706E-04  0.3201421E-09
  0.5500000E+00  0.3334324E+03  0.4887684E-01 -0.5418604E-06 -0.1455192E-10  0.9997324E-05  0.1455890E-05 -0.6773255E-07  0.1455192E-10 -0.5920542E+02 -0.5942855E-02 -0.1896511E-05  0.1193257E-08
  0.5600000E+00  0.3335966E+03  0.5194461E-01  0.4257475E-06 -0.1018634E-09  0.1878611E-04  0.1430948E-05 -0.1596553E-06  0.5093170E-10 -0.5922689E+02 -0.6317490E-02 -0.9419663E-05 -0.1367880E-08
  0.5700001E+00  0.3336672E+03  0.5514370E-01  0.1045695E-06 -0.2619345E-09 -0.3176300E-04 -0.1393521E-05  0.1307119E-07 -0.1455192E-10 -0.5920871E+02 -0.6706095E-02 -0.7738146E-05  0.5311449E-09
  0.5800000E+00  0.3337015E+03  0.5848472E-01 -0.1027666E-06 -0.1164153E-09 -0.3419560E-04 -0.2888279E-05  0.8992080E-07 -0.5093170E-10 -0.5918220E+02 -0.7111446E-02  0.1813831E-04  0.3827154E-08
  0.5900000E+00  0.3337599E+03  0.6198997E-01  0.0000000E+00 -0.1600711E-09  0.1949779E-04  0.3738562E-05 -0.1515372E-06 -0.8003553E-10 -0.5918560E+02 -0.7539103E-02 -0.1409296E-04 -0.8367351E-09
  0.6000000E+00  0.3338513E+03  0.6565502E-01 -0.1986821E-06 -0.2910383E-10 -0.3966192E-04 -0.3998866E-05  0.7450581E-07  0.7275958E-11 -0.5920713E+02 -0.7987607E-02 -0.5687276E-05 -0.3565219E-09
  0.6100000E+00  0.3339226E+03  0.6949010E-01 -0.1465688E-06 -0.8731149E-10  0.8989553E-05 -0.1461260E-05  0.8549846E-07  0.2910383E-10 -0.5922494E+02 -0.8457143E-02 -0.2154561E-04  0.6548362E-09
  0.6200000E+00  0.3340095E+03  0.7349293E-01  0.3364778E-06 -0.3492460E-09  0.4376615E-04  0.1969369E-05  0.1201707E-07  0.7275958E-11 -0.5924276E+02 -0.8946955E-02 -0.5287509E-05 -0.4365575E-09
  0.6300000E+00  0.3340070E+03  0.7766414E-01 -0.9461055E-07 -0.2910383E-10  0.1260686E-04  0.1770240E-05  0.1300895E-06  0.1091394E-09 -0.5923444E+02 -0.9456906E-02 -0.7332318E-05  0.5777110E-08
  0.6400000E+00  0.3340107E+03  0.8201504E-01 -0.7916242E-06 -0.2619345E-09 -0.1725275E-04 -0.1223962E-05  0.0000000E+00  0.0000000E+00 -0.5923819E+02 -0.9988080E-02 -0.5587935E-06  0.1993612E-08
  0.6500000E+00  0.3340312E+03  0.8656980E-01 -0.2292486E-06  0.8731149E-10 -0.2842683E-05  0.2523739E-06 -0.1146243E-06 -0.1455192E-10 -0.5924607E+02 -0.1054637E-01 -0.2319996E-04 -0.4074536E-09
  0.6600000E+00  0.3340737E+03  0.9132500E-01 -0.9031007E-07 -0.1455192E-09 -0.1817490E-04  0.5302863E-06  0.1806201E-06 -0.2182787E-10 -0.5925659E+02 -0.1112890E-01  0.8940697E-05  0.1469743E-08
  0.6700001E+00  0.3341349E+03  0.9629183E-01 -0.3558486E-06  0.4365575E-09  0.3149260E-04  0.3393798E-05 -0.3336081E-07 -0.5820766E-10 -0.5927159E+02 -0.1173880E-01  0.1114251E-04 -0.1469743E-08
  0.6800001E+00  0.3342098E+03  0.1014876E+00  0.9203657E-06  0.2619345E-09  0.1389314E-04  0.1495995E-05 -0.2191347E-07  0.1455192E-10 -0.5928961E+02 -0.1237644E-01  0.6617867E-05  0.8731149E-10
  0.6900001E+00  0.3343121E+03  0.1069023E+00 -0.2159588E-06 -0.2328306E-09  0.8638353E-07  0.3515306E-05  0.0000000E+00  0.0000000E+00 -0.5931133E+02 -0.1304108E-01 -0.1842129E-04  0.1891749E-08
  0.7000000E+00  0.3344109E+03  0.1125641E+00 -0.4257475E-07  0.2037268E-09  0.2311809E-04  0.1377834E-05 -0.1490116E-06  0.2910383E-10 -0.5934345E+02 -0.1373860E-01  0.1072884E-04  0.6984919E-09
  0.7100000E+00  0.3345015E+03  0.1184744E+00  0.0000000E+00  0.4656613E-09  0.1275204E-03  0.1024324E-04  0.2413568E-06 -0.1164153E-09 -0.5937092E+02 -0.1446590E-01  0.2728382E-06 -0.6548362E-09
  0.7200000E+00  0.3346293E+03  0.1246538E+00  0.3311369E-06  0.3492460E-09  0.1193748E-03  0.1248682E-04 -0.3104408E-07  0.1455192E-10 -0.5940116E+02 -0.1522678E-01  0.5111926E-05 -0.1018634E-09
  0.7300000E+00  0.3348462E+03  0.1311202E+00 -0.1224753E-05 -0.6402843E-09  0.4964332E-04  0.6038143E-05 -0.2245380E-06 -0.2182787E-09 -0.5943097E+02 -0.1602177E-01 -0.5593039E-05  0.2444722E-08
  0.7400000E+00  0.3350576E+03  0.1377995E+00 -0.3221873E-06  0.4074536E-09  0.5271789E-04  0.8123548E-05  0.1006835E-06 -0.2910383E-10 -0.5944018E+02 -0.1683839E-01 -0.2164696E-04  0.1295120E-08
  0.7500000E+00  0.3352574E+03  0.1447612E+00 -0.3178914E-06  0.2328306E-09  0.7867813E-04  0.1340179E-04 -0.1589457E-06  0.2910383E-10 -0.5944330E+02 -0.1768959E-01 -0.1035134E-04  0.2386514E-08
  0.7600000E+00  0.3354843E+03  0.1520267E+00 -0.3921358E-06  0.5238689E-09  0.6627096E-04  0.1202340E-04  0.1176408E-06  0.2910383E-10 -0.5946260E+02 -0.1858168E-01 -0.3607650E-05 -0.1542503E-08
  0.7700000E+00  0.3357348E+03  0.1595995E+00 -0.7740863E-07  0.2328306E-09  0.6455880E-04  0.9511714E-05 -0.9676079E-07 -0.4365575E-10 -0.5949741E+02 -0.1951285E-01  0.4180066E-05 -0.6984919E-08
  0.7800000E+00  0.3359825E+03  0.1675001E+00  0.4584973E-06  0.8149073E-09  0.3434909E-04  0.5743379E-05  0.3820811E-07 -0.4365575E-10 -0.5953676E+02 -0.2048741E-01 -0.1146243E-05  0.1338776E-08
  0.7900000E+00  0.3362362E+03  0.1757265E+00 -0.1508978E-06  0.4074536E-09  0.1708918E-04  0.3719790E-05  0.1886223E-07 -0.1164153E-09 -0.5957492E+02 -0.2150299E-01 -0.7507167E-05 -0.1600711E-08
  0.8000000E+00  0.3364983E+03  0.1842732E+00 -0.7450581E-07  0.6984919E-09  0.2868474E-04  0.5301466E-05 -0.3725290E-07 -0.5820766E-10 -0.5961237E+02 -0.2255723E-01 -0.9126961E-05  0.1263106E-07
  0.8099999E+00  0.3367267E+03  0.1931461E+00  0.5886880E-06  0.4656613E-09  0.8429275E-04  0.8770789E-05 -0.1287755E-06 -0.8731149E-10 -0.5963952E+02 -0.2364933E-01  0.6475567E-05  0.3346941E-08
  0.8200001E+00  0.3369070E+03  0.2023555E+00  0.1453772E-06  0.5820766E-10  0.9642141E-04  0.9172480E-05 -0.2180658E-06  0.5820766E-10 -0.5965525E+02 -0.2478176E-01  0.3525396E-05  0.6955815E-08
  0.8300000E+00  0.3370988E+03  0.2119434E+00 -0.2872513E-06  0.5820766E-10  0.3676817E-04  0.3830821E-05 -0.1795321E-07  0.3492460E-09 -0.5968065E+02 -0.2596475E-01 -0.8868884E-05 -0.7130438E-08
  0.8400000E+00  0.3372859E+03  0.2219235E+00 -0.4257475E-06  0.5820766E-09  0.3061834E-04  0.5565584E-05 -0.1773948E-06  0.8731149E-10 -0.5970505E+02 -0.2719728E-01  0.1326913E-04 -0.1251465E-08
  0.8500000E+00  0.3375088E+03  0.2323147E+00  0.0000000E+00 -0.2328306E-09 -0.1342858E-04 -0.4283851E-05 -0.1753078E-07 -0.5820766E-10 -0.5973512E+02 -0.2848110E-01  0.6135772E-05  0.3637979E-08
  0.8600000E+00  0.3376914E+03  0.2431247E+00 -0.6237696E-06  0.6402843E-09 -0.5444122E-04 -0.8832838E-05 -0.1732693E-07  0.5820766E-10 -0.5976242E+02 -0.2981802E-01  0.5995118E-05  0.8760253E-08
  0.8700000E+00  0.3378832E+03  0.2543876E+00 -0.2055333E-06  0.1455192E-08  0.3175489E-04  0.1234061E-05 -0.6851108E-07 -0.1746230E-09 -0.5979146E+02 -0.3121125E-01 -0.6645575E-05  0.1685112E-07
  0.8800000E+00  0.3380878E+03  0.2661134E+00  0.6773255E-07  0.3492460E-09  0.3467907E-04 -0.1312001E-05 -0.8466569E-07  0.1455192E-09 -0.5982206E+02 -0.3266305E-01  0.0000000E+00 -0.2130400E-07
  0.8900001E+00  0.3382872E+03  0.2783230E+00 -0.2678860E-06 -0.1164153E-09  0.2879775E-04  0.1706067E-05  0.6697150E-07  0.0000000E+00 -0.5985180E+02 -0.3417533E-01  0.4118747E-05 -0.3550667E-08
  0.9000000E+00  0.3384666E+03  0.2910353E+00  0.1324548E-06  0.4656613E-09 -0.1062950E-04 -0.9285985E-05  0.3311369E-07 -0.8731149E-10 -0.5989088E+02 -0.3575488E-01 -0.1450380E-04 -0.8090865E-08
  0.9100001E+00  0.3386172E+03  0.3042674E+00  0.6549961E-07 -0.1164153E-09 -0.9104445E-05 -0.4709698E-05 -0.3274980E-07 -0.2910383E-09 -0.5992451E+02 -0.3739851E-01  0.1283792E-04 -0.5005859E-08
  0.9200000E+00  0.3387469E+03  0.3180556E+00  0.8422396E-06  0.4656613E-09 -0.3576279E-04 -0.9094132E-05  0.1619691E-07  0.4074536E-09 -0.5995301E+02 -0.3911303E-01 -0.6835098E-05 -0.3026798E-08
  0.9300001E+00  0.3389159E+03  0.3324138E+00  0.6409100E-07  0.5820766E-09  0.8716377E-05  0.6321934E-06  0.0000000E+00  0.4365575E-09 -0.5998774E+02 -0.4089901E-01  0.6312964E-05 -0.2782326E-07
  0.9400001E+00  0.3390414E+03  0.3473078E+00 -0.3170459E-06  0.5820766E-09  0.1366468E-04  0.7328927E-06  0.6340919E-07  0.2328306E-09 -0.5999811E+02 -0.4274419E-01 -0.1718389E-04  0.8149073E-08
  0.9500000E+00  0.3391475E+03  0.3626902E+00 -0.1882252E-06 -0.8149073E-09  0.4925226E-05  0.3504276E-05 -0.1568543E-07  0.0000000E+00 -0.5999661E+02 -0.4464047E-01 -0.5301677E-05  0.9255018E-08
  0.9600000E+00  0.3392470E+03  0.3786640E+00  0.0000000E+00 -0.9313226E-09  0.0000000E+00  0.1118751E-05 -0.1707425E-06  0.5820766E-09 -0.5999108E+02 -0.4661469E-01 -0.8071463E-06 -0.1629815E-08
  0.9700000E+00  0.3393763E+03  0.3953012E+00 -0.1843443E-06  0.1746230E-08 -0.3944967E-04 -0.9638141E-05 -0.6144808E-07 -0.3201421E-09 -0.5999860E+02 -0.4867750E-01 -0.1265831E-04  0.4074536E-09
  0.9800000E+00  0.3395048E+03  0.4126283E+00  0.1216421E-06  0.1164153E-08 -0.3396856E-04 -0.1001731E-04 -0.1368474E-06 -0.1746230E-09 -0.6001712E+02 -0.5083071E-01  0.1131272E-04  0.2508750E-07
  0.9900000E+00  0.3396723E+03  0.4306643E+00  0.6020671E-07 -0.6984919E-09  0.6171188E-05 -0.3783498E-06  0.1204134E-06  0.1746230E-09 -0.6004720E+02 -0.5307834E-01 -0.1026524E-04 -0.2764864E-07
  0.1000000E+01  0.3397962E+03  0.4494326E+00  0.1192093E-06  0.0000000E+00  0.5194545E-04  0.5051494E-05 -0.7450581E-07  0.2910383E-09 -0.6007198E+02 -0.5542172E-01 -0.3308058E-05 -0.6984919E-09
  0.1010000E+01  0.3399503E+03  0.4689230E+00 -0.1180290E-06 -0.9313226E-09  0.3222192E-04 -0.1515727E-05  0.1032754E-06  0.4074536E-09 -0.6009921E+02 -0.5785777E-01 -0.1737977E-04 -0.8381903E-08
  0.1020000E+01  0.3400978E+03  0.4891182E+00  0.0000000E+00 -0.1164153E-08 -0.1595301E-04 -0.8879229E-05  0.1022629E-06  0.0000000E+00 -0.6012489E+02 -0.6037992E-01 -0.2319906E-04  0.3550667E-08
  0.1030000E+01  0.3403936E+03  0.5100495E+00  0.5786859E-07 -0.1396984E-08 -0.5274722E-04 -0.6159535E-05  0.1302043E-06  0.5238689E-09 -0.6016729E+02 -0.6298665E-01 -0.9808726E-05  0.3026798E-08
  0.1040000E+01  0.3405289E+03  0.5316908E+00  0.0000000E+00 -0.1862645E-08 -0.9900676E-04 -0.1793413E-04  0.2865608E-07 -0.6984919E-09 -0.6017910E+02 -0.6567601E-01 -0.6676867E-05  0.1466833E-07
  0.1050000E+01  0.3407010E+03  0.5541776E+00 -0.2270653E-06  0.6984919E-09 -0.3212974E-04 -0.3682682E-05  0.1419158E-07 -0.2910383E-09 -0.6020693E+02 -0.6848340E-01  0.1702990E-05 -0.2258457E-07
  0.1060000E+01  0.3409055E+03  0.5775667E+00  0.0000000E+00  0.0000000E+00 -0.2240797E-04 -0.7889816E-05  0.1124616E-06 -0.3492460E-09 -0.6023854E+02 -0.7140683E-01  0.5651195E-05 -0.2316665E-07
  0.1070000E+01  0.3411511E+03  0.6019138E+00 -0.5570527E-07 -0.2095476E-08  0.6238990E-05 -0.1469627E-05 -0.8355791E-07  0.5238689E-09 -0.6027463E+02 -0.7445059E-01 -0.2141868E-04  0.2689194E-07
  0.1080000E+01  0.3414842E+03  0.6272791E+00  0.5518948E-07  0.6984919E-09  0.4144730E-04  0.8357223E-05  0.3173395E-06  0.3492460E-09 -0.6032124E+02 -0.7762394E-01 -0.1211409E-04 -0.6286427E-08
  0.1090000E+01  0.3418181E+03  0.6536673E+00 -0.3827821E-06  0.4656613E-09  0.1927581E-04  0.3508874E-05  0.1777203E-06 -0.1047738E-08 -0.6037071E+02 -0.8092863E-01 -0.5687049E-05  0.2246816E-07
  0.1100000E+01  0.3421596E+03  0.6811174E+00  0.3251162E-06  0.2328306E-09  0.1560558E-04  0.5632988E-05 -0.6773255E-07 -0.1571607E-08 -0.6042155E+02 -0.8436885E-01  0.1544302E-05  0.1164153E-09
  0.1110000E+01  0.3425096E+03  0.7096881E+00 -0.3221873E-06  0.6984919E-09 -0.6521607E-04 -0.1859339E-04 -0.6712235E-07 -0.5820766E-10 -0.6047360E+02 -0.8795220E-01  0.8027832E-05 -0.4377216E-07
  0.1120000E+01  0.3428722E+03  0.7394192E+00 -0.2660922E-06 -0.1629815E-08 -0.8123794E-04 -0.2629997E-04  0.2660922E-07 -0.6984919E-09 -0.6052699E+02 -0.9168350E-01 -0.1027116E-04 -0.6519258E-08
  0.1130000E+01  0.3432356E+03  0.7703738E+00 -0.1476929E-05  0.4656613E-09  0.7912121E-07 -0.6392715E-05 -0.2637374E-07  0.1164153E-09 -0.6058530E+02 -0.9557417E-01 -0.2932760E-04 -0.1012813E-07
  0.1140000E+01  0.3435763E+03  0.8025705E+00  0.2091391E-06  0.4423782E-08 -0.4156640E-05 -0.1130276E-04 -0.9149836E-07 -0.1746230E-09 -0.6064614E+02 -0.9962930E-01  0.3304398E-04 -0.1047738E-07
  0.1150000E+01  0.3438915E+03  0.8360735E+00 -0.4146410E-06 -0.9313226E-09 -0.2565591E-04 -0.9682262E-05  0.2591506E-07  0.1280569E-08 -0.6069834E+02 -0.1038443E+00  0.9795894E-05 -0.3050081E-07
  0.1160000E+01  0.3442057E+03  0.8709958E+00  0.1027666E-06 -0.1629815E-08 -0.8041489E-05  0.6482005E-06  0.0000000E+00  0.5820766E-09 -0.6075098E+02 -0.1082444E+00  0.2944264E-04  0.2817251E-07
  0.1170000E+01  0.3445330E+03  0.9073192E+00  0.4075531E-06 -0.1396984E-08  0.4022040E-04  0.1742574E-04 -0.1910405E-06  0.5820766E-09 -0.6080553E+02 -0.1128248E+00  0.1655685E-05  0.6135087E-07
  0.1180000E+01  0.3448402E+03  0.9450107E+00 -0.3030745E-06 -0.2095476E-08  0.5046190E-04  0.1143035E-04 -0.1262810E-07  0.4656613E-09 -0.6084177E+02 -0.1175580E+00 -0.2538249E-04  0.1140870E-07
  0.1190000E+01  0.3451190E+03  0.9839436E+00  0.0000000E+00 -0.1396984E-08  0.1775617E-04  0.1667067E-06  0.6260992E-07 -0.9313226E-09 -0.6086428E+02 -0.1224238E+00  0.1652902E-04  0.1920853E-07
  0.1200000E+01  0.3453835E+03  0.1024316E+01 -0.1490116E-06  0.4423782E-08  0.1216928E-05  0.1747627E-05 -0.7450581E-07  0.0000000E+00 -0.6088126E+02 -0.1274775E+00 -0.4743536E-05 -0.3317837E-07
  0.1210000E+01  0.3456548E+03  0.1066332E+01 -0.4926003E-07  0.4656613E-08  0.7162409E-04  0.2300297E-04 -0.2463002E-07  0.5820766E-09 -0.6089869E+02 -0.1327451E+00 -0.2192072E-05  0.1385342E-07
  0.1220000E+01  0.3459485E+03  0.1110075E+01 -0.1465688E-06 -0.4656613E-08  0.5777253E-04  0.2145721E-04  0.1099266E-06  0.1164153E-09 -0.6093471E+02 -0.1382506E+00  0.1172550E-04 -0.1955777E-07
  0.1230000E+01  0.3462616E+03  0.1155656E+01  0.3392134E-06  0.0000000E+00  0.4261974E-04  0.1515425E-04 -0.6057383E-07  0.2095476E-08 -0.6097965E+02 -0.1440004E+00 -0.1674261E-04  0.3515743E-07
  0.1240000E+01  0.3465722E+03  0.1203104E+01  0.5287509E-06  0.4656613E-09  0.3593103E-04  0.1626462E-04  0.7210240E-07  0.4656613E-09 -0.6102815E+02 -0.1500001E+00 -0.1922730E-06 -0.5820766E-08
  0.1250000E+01  0.3468876E+03  0.1252464E+01  0.1430512E-06 -0.4656613E-09  0.9131431E-05  0.1151348E-05  0.2861023E-06 -0.1164153E-08 -0.6107722E+02 -0.1562594E+00 -0.5030632E-05 -0.4703179E-07
  0.1260000E+01  0.3472047E+03  0.1303696E+01 -0.8988002E-06 -0.9313226E-09  0.8082106E-04  0.3102515E-04 -0.1300895E-06 -0.1280569E-08 -0.6112361E+02 -0.1627620E+00 -0.6622739E-06 -0.6542541E-07
  0.1270000E+01  0.3475219E+03  0.1356694E+01  0.4223951E-06  0.4656613E-08  0.7736871E-04  0.3014901E-04  0.3519959E-07 -0.1164153E-09 -0.6116953E+02 -0.1694830E+00 -0.4083153E-05 -0.4889444E-07
  0.1280000E+01  0.3478352E+03  0.1411437E+01 -0.1396984E-06  0.5122274E-08  0.4966278E-04  0.1194677E-04  0.1164153E-06  0.2328306E-09 -0.6121336E+02 -0.1763957E+00  0.9895302E-05  0.2933666E-07
  0.1290000E+01  0.3480833E+03  0.1467924E+01 -0.2310258E-06 -0.3725290E-08  0.5902708E-04  0.1751329E-04  0.1848206E-06  0.1629815E-08 -0.6123874E+02 -0.1835089E+00  0.8109004E-05  0.1490116E-07
  0.1300000E+01  0.3483425E+03  0.1526461E+01 -0.1375492E-06  0.0000000E+00  0.4766079E-04  0.1485646E-04 -0.9169946E-07  0.1629815E-08 -0.6127366E+02 -0.1909055E+00 -0.4126476E-05  0.4470348E-07
  0.1310000E+01  0.3486106E+03  0.1587209E+01  0.2274987E-06 -0.5122274E-08  0.1012369E-03  0.3594020E-04 -0.9099946E-07 -0.8149073E-09 -0.6131407E+02 -0.1986090E+00 -0.3558079E-04 -0.2468005E-07
  0.1320000E+01  0.3488933E+03  0.1650384E+01  0.4515503E-07  0.1257285E-07  0.7676356E-04  0.2905680E-04  0.3386628E-07  0.1979060E-08 -0.6135648E+02 -0.2066319E+00  0.2483527E-05  0.7101335E-07
  0.1330000E+01  0.3491799E+03  0.1716006E+01  0.6274173E-06 -0.9313226E-09  0.2796488E-04  0.1130160E-04 -0.6722328E-07  0.2328306E-09 -0.6139910E+02 -0.2149688E+00 -0.1008349E-04  0.7869676E-07
  0.1340000E+01  0.3494742E+03  0.1784162E+01 -0.2668865E-06  0.4190952E-08  0.2566558E-04  0.7432885E-05 -0.7784188E-07 -0.2328306E-09 -0.6144351E+02 -0.2236350E+00  0.1065322E-04 -0.6402843E-07
  0.1350000E+01  0.3497561E+03  0.1855049E+01 -0.1766063E-06  0.4190952E-08  0.3567448E-04  0.2209982E-04 -0.5518948E-07 -0.1629815E-08 -0.6148842E+02 -0.2326590E+00  0.1026524E-04 -0.4540198E-07
  0.1360000E+01  0.3500467E+03  0.1928715E+01  0.1753078E-06  0.9313226E-09  0.7845023E-05  0.3113877E-05 -0.5478368E-07 -0.1862645E-08 -0.6153429E+02 -0.2420430E+00  0.4163560E-06  0.9080395E-08
  0.1370000E+01  0.3503574E+03  0.2005312E+01  0.1740282E-06  0.6053597E-08  0.3171663E-04  0.7049181E-05  0.4350704E-07  0.1164153E-08 -0.6158334E+02 -0.2518078E+00  0.1405277E-04  0.2677552E-07
  0.1380000E+01  0.3506826E+03  0.2084983E+01 -0.1036602E-05 -0.3725290E-08  0.3317128E-04  0.1531048E-04 -0.1727671E-06  0.9313226E-09 -0.6163484E+02 -0.2619730E+00  0.6284403E-05  0.9709038E-07
  0.1390000E+01  0.3510118E+03  0.2167857E+01 -0.8576208E-07 -0.1862645E-08  0.4596847E-04  0.1182407E-04  0.8576208E-07  0.0000000E+00 -0.6168922E+02 -0.2725572E+00 -0.6775204E-05  0.2537854E-07
  0.1400000E+01  0.3513325E+03  0.2253997E+01 -0.5108969E-06  0.0000000E+00  0.1358134E-04 -0.1789071E-05 -0.2128737E-07  0.9313226E-09 -0.6175027E+02 -0.2835912E+00 -0.1509275E-04 -0.6100163E-07
  0.1410000E+01  0.3516185E+03  0.2343575E+01  0.2536368E-06  0.3725290E-08  0.2709686E-04  0.4352070E-05  0.2113640E-06 -0.9313226E-09 -0.6180432E+02 -0.2950636E+00 -0.7038421E-05 -0.6053597E-08
  0.1420000E+01  0.3519143E+03  0.2436687E+01  0.0000000E+00  0.0000000E+00 -0.8814772E-05 -0.4746951E-05  0.8395021E-07 -0.1629815E-08 -0.6185825E+02 -0.3069926E+00  0.5078988E-05 -0.1275912E-06
  0.1430000E+01  0.3522070E+03  0.2533684E+01  0.5835420E-06  0.8381903E-08  0.5214365E-04  0.2205372E-04 -0.1042039E-06 -0.2328306E-08 -0.6191252E+02 -0.3194283E+00  0.7044186E-05 -0.3073364E-07
  0.1440000E+01  0.3525263E+03  0.2634528E+01 -0.3311369E-06 -0.1862645E-08  0.6531675E-04  0.1991494E-04 -0.8278423E-07  0.4656613E-09 -0.6196857E+02 -0.3323632E+00  0.3394153E-05 -0.4051253E-07
  0.1450000E+01  0.3528324E+03  0.2738926E+01  0.8221330E-07 -0.3725290E-08  0.7238881E-04  0.3375066E-04  0.1849799E-06  0.6984919E-09 -0.6200091E+02 -0.3456662E+00  0.6577064E-06  0.3958121E-07
  0.1460000E+01  0.3531193E+03  0.2847044E+01  0.0000000E+00  0.2793968E-08  0.8663085E-04  0.3421959E-04  0.1224753E-06  0.4656613E-09 -0.6202567E+02 -0.3594150E+00  0.1465621E-04  0.1629815E-07
  0.1470000E+01  0.3534258E+03  0.2959349E+01  0.1216421E-05 -0.8381903E-08  0.3061327E-04  0.1249975E-04 -0.2027369E-06  0.6752089E-08 -0.6205059E+02 -0.3737266E+00 -0.3324885E-05 -0.8055940E-07
  0.1480000E+01  0.3537711E+03  0.3076182E+01  0.1610936E-06 -0.1024455E-07  0.5199297E-04  0.1257099E-04 -0.8054682E-07 -0.2328306E-09 -0.6208010E+02 -0.3886226E+00 -0.2939959E-05  0.5168840E-07
  0.1490000E+01  0.3541798E+03  0.3197930E+01 -0.1600125E-06  0.1583248E-07  0.1664130E-04  0.4377216E-07  0.0000000E+00 -0.1862645E-08 -0.6213490E+02 -0.4042144E+00 -0.3320259E-05 -0.1555309E-06
  0.1500000E+01  0.3546591E+03  0.3325079E+01 -0.3178914E-06 -0.7450581E-08  0.5276998E-04  0.1316518E-04 -0.1986821E-06  0.5587935E-08 -0.6220285E+02 -0.4205182E+00 -0.1788139E-05  0.0000000E+00
  0.1510000E+01  0.3551683E+03  0.3457431E+01  0.0000000E+00  0.3725290E-08  0.8976223E-04  0.3467035E-04 -0.7894655E-07  0.0000000E+00 -0.6227943E+02 -0.4375351E+00 -0.1235514E-04 -0.2561137E-07
  0.1520000E+01  0.3556877E+03  0.3595151E+01  0.7842716E-07 -0.4656613E-08  0.7058445E-05 -0.8642673E-06  0.1764611E-06 -0.1396984E-08 -0.6235830E+02 -0.4553078E+00 -0.8234852E-06 -0.1601875E-06
  0.1530000E+01  0.3562067E+03  0.3737975E+01 -0.6233166E-06  0.0000000E+00  0.4067141E-04  0.1699198E-04  0.1947864E-07 -0.4656613E-09 -0.6243515E+02 -0.4737624E+00  0.1515438E-04  0.2253801E-06
  0.1540000E+01  0.3567430E+03  0.3885601E+01  0.3096345E-06  0.6519258E-08  0.1861678E-04  0.7288530E-05 -0.1935216E-07  0.2793968E-08 -0.6251313E+02 -0.4928695E+00  0.7082890E-05  0.1285225E-06
  0.1550000E+01  0.3572881E+03  0.4037766E+01 -0.3076369E-06 -0.6519258E-08  0.8921470E-04  0.3628712E-04  0.0000000E+00 -0.3725290E-08 -0.6259141E+02 -0.5124262E+00 -0.6345011E-05  0.4936010E-07
  0.1560000E+01  0.3577793E+03  0.4194380E+01 -0.9934108E-06 -0.1862645E-08  0.6659673E-04  0.4081707E-04  0.7641621E-07  0.3259629E-08 -0.6265364E+02 -0.5325007E+00 -0.3897227E-05 -0.1676381E-07
  0.1570000E+01  0.3582500E+03  0.4356016E+01 -0.5315064E-06  0.1862645E-08  0.1045929E-03  0.5837157E-04 -0.1708413E-06 -0.5587935E-08 -0.6271009E+02 -0.5532242E+00  0.1609705E-04  0.4190952E-08
  0.1580000E+01  0.3587314E+03  0.4523507E+01 -0.2263467E-06 -0.3725290E-08  0.1224536E-03  0.5859975E-04  0.1320356E-06  0.5122274E-08 -0.6277871E+02 -0.5748028E+00 -0.8073034E-05 -0.1844019E-06
  0.1590000E+01  0.3591559E+03  0.4696958E+01 -0.3748720E-06  0.3725290E-08  0.3527545E-04  0.1063384E-04  0.3748720E-07 -0.2328306E-08 -0.6283929E+02 -0.5972156E+00  0.4873336E-06  0.1210719E-06
  0.1600000E+01  0.3596601E+03  0.4877040E+01 -0.7450581E-07  0.2048910E-07  0.4034489E-04  0.1511350E-04  0.3725290E-07 -0.1396984E-08 -0.6291121E+02 -0.6205090E+00  0.1490116E-06  0.1769513E-07
  0.1610000E+01  0.3602636E+03  0.5063975E+01  0.2221291E-06 -0.3725290E-08  0.5634675E-04  0.2894178E-04 -0.3702152E-07 -0.9313226E-09 -0.6299731E+02 -0.6447170E+00 -0.1151369E-04 -0.1778826E-06
  0.1620000E+01  0.3607809E+03  0.5257720E+01 -0.4415159E-06  0.9313226E-08  0.7719170E-04  0.2567284E-04  0.3679299E-07 -0.2328306E-08 -0.6307238E+02 -0.6698233E+00 -0.1545306E-05  0.4339963E-06
  0.1630000E+01  0.3612925E+03  0.5458685E+01  0.2194036E-06 -0.9313226E-08  0.1265227E-04 -0.1285132E-04 -0.7313454E-07  0.0000000E+00 -0.6314752E+02 -0.6958889E+00  0.2450007E-05 -0.1518056E-06
  0.1640000E+01  0.3618094E+03  0.5667016E+01 -0.7268859E-07  0.3725290E-08  0.2071625E-04  0.2176501E-05  0.1453772E-06  0.4190952E-08 -0.6322346E+02 -0.7229308E+00  0.1228437E-04 -0.9406358E-07
  0.1650000E+01  0.3623393E+03  0.5883243E+01 -0.1444961E-06  0.1676381E-07  0.7882263E-04  0.3385358E-04  0.1806201E-06 -0.3725290E-08 -0.6330127E+02 -0.7510200E+00 -0.5418604E-06 -0.1322478E-06