VARIABLES="w (rad/s)"
"abs(F   1   1)" "angle(F   1   1)"
"abs(F   1   2)" "angle(F   1   2)"
"abs(F   1   3)" "angle(F   1   3)"
"abs(F   1   4)" "angle(F   1   4)"
"abs(F   1   5)" "angle(F   1   5)"
"abs(F   1   6)" "angle(F   1   6)"
Zone t="Diffraction force - beta =   0.000 deg",I=  2986,F=POINT
  0.1500000E+00  0.3606973E+03 -0.1570787E+01  0.2208880E-03 -0.3139367E+01  0.2005871E+05 -0.1979314E-03  0.2359748E-02 -0.1199798E-03  0.4487652E+02  0.1570811E+01  0.9367998E-04  0.2072300E+00
  0.1600000E+00  0.3851306E+03 -0.1570790E+01  0.1762777E-02  0.3141432E+01  0.2005186E+05 -0.2252303E-03  0.1314089E-02 -0.3141025E+01  0.4796281E+02  0.1570838E+01  0.1184328E-03  0.6471644E-01
  0.1700000E+00  0.4088942E+03 -0.1570784E+01  0.4582928E-03  0.8128627E-03  0.2004451E+05 -0.2545085E-03  0.5781643E-02  0.3141492E+01  0.5091740E+02  0.1570816E+01  0.8512123E-05  0.2655240E+01
  0.1800000E+00  0.4326236E+03 -0.1570775E+01  0.9755197E-03 -0.3140845E+01  0.2003668E+05 -0.2857950E-03  0.5279183E-03  0.1975838E-03  0.5391794E+02  0.1570814E+01  0.1688087E-03  0.1030195E+00
  0.1900000E+00  0.4571537E+03 -0.1570768E+01  0.9847581E-03  0.4539540E-03  0.2002852E+05 -0.3186486E-03  0.3517330E-02  0.1186220E-03  0.5693637E+02  0.1570798E+01  0.1125928E-03 -0.1778826E+00
  0.2000000E+00  0.4821229E+03 -0.1570768E+01  0.1174942E-02  0.3140806E+01  0.2001987E+05 -0.3534974E-03  0.1080141E-02  0.5518230E-04  0.6005827E+02  0.1570831E+01  0.1946040E-03  0.1592758E-01
  0.2100000E+00  0.5067434E+03 -0.1570769E+01  0.7940679E-03 -0.3141330E+01  0.2001087E+05 -0.3901901E-03  0.4070445E-02  0.3141428E+01  0.6317988E+02  0.1570825E+01  0.1469956E-03 -0.1628113E+00
  0.2200000E+00  0.5311698E+03 -0.1570766E+01  0.3434838E-03  0.5119150E-02  0.2000142E+05 -0.4287847E-03  0.4257858E-02  0.3149717E-04  0.6621936E+02  0.1570826E+01  0.2139592E-03  0.3789587E-01
  0.2300000E+00  0.5553517E+03 -0.1570759E+01  0.2533648E-03 -0.3139828E+01  0.1999150E+05 -0.4692888E-03  0.3055691E-02 -0.1853079E-03  0.6923575E+02  0.1570820E+01  0.4867665E-04 -0.2797817E+01
  0.2400000E+00  0.5797818E+03 -0.1570755E+01  0.2370927E-03 -0.1759787E-02  0.1998116E+05 -0.5116963E-03  0.7054925E-05 -0.3063363E+01  0.7230227E+02  0.1570848E+01  0.4331838E-04 -0.2859544E+00
  0.2500000E+00  0.6040577E+03 -0.1570752E+01  0.9163767E-03  0.2276534E-03  0.1997041E+05 -0.5560899E-03  0.6283683E-03  0.3139554E+01  0.7529163E+02  0.1570836E+01  0.1612162E-03 -0.3042067E+01
  0.2600000E+00  0.6283577E+03 -0.1570751E+01  0.1489311E-02  0.3141473E+01  0.1995927E+05 -0.6023861E-03  0.9200423E-03 -0.3804992E-08  0.7828437E+02  0.1570847E+01  0.1871785E-03  0.2943424E+01
  0.2700000E+00  0.6529247E+03 -0.1570745E+01  0.5880909E-03 -0.3139211E+01  0.1994772E+05 -0.6506415E-03  0.2536372E-02  0.1762497E-03  0.8140484E+02  0.1570834E+01  0.7893816E-04 -0.2794147E+00
  0.2800000E+00  0.6772537E+03 -0.1570746E+01  0.1135245E-02  0.3141199E+01  0.1993582E+05 -0.7008385E-03  0.6575882E-03 -0.3141321E+01  0.8447251E+02  0.1570840E+01  0.1105145E-03 -0.2197065E+01
  0.2900000E+00  0.7017035E+03 -0.1570739E+01  0.1107841E-02 -0.4842223E-03  0.1992344E+05 -0.7530677E-03  0.2192736E-02  0.3141226E+01  0.8753439E+02  0.1570856E+01  0.3892887E-04  0.1364355E+01
  0.3000000E+00  0.7262761E+03 -0.1570732E+01  0.5027087E-03 -0.3138095E+01  0.1991065E+05 -0.8073080E-03  0.2874583E-02 -0.7257280E-03  0.9059875E+02  0.1570855E+01  0.9084808E-04 -0.2749268E+01
  0.3100000E+00  0.7511272E+03 -0.1570729E+01  0.4305438E-03 -0.3137023E+01  0.1989741E+05 -0.8636249E-03  0.5633535E-03  0.3140904E+01  0.9373210E+02  0.1570861E+01  0.4302383E-04  0.1243121E+00
  0.3200000E+00  0.7759219E+03 -0.1570725E+01  0.1941070E-03  0.3134837E+01  0.1988368E+05 -0.9220311E-03  0.1495987E-02 -0.3141553E+01  0.9686439E+02  0.1570869E+01  0.1232194E-03 -0.1196450E+00
  0.3300000E+00  0.8007852E+03 -0.1570722E+01  0.5872848E-03  0.3140882E+01  0.1986968E+05 -0.9824996E-03  0.1833111E-02 -0.3100927E-10  0.9994073E+02  0.1570870E+01  0.3592563E-04  0.1872544E+01
  0.3400000E+00  0.8256655E+03 -0.1570717E+01  0.6387850E-03  0.2519357E-02  0.1985524E+05 -0.1045144E-02  0.3105789E-02  0.3838076E-04  0.1030014E+03  0.1570883E+01  0.5562526E-04  0.4581367E+00
  0.3500000E+00  0.8508069E+03 -0.1570714E+01  0.3637740E-03 -0.6144441E-02  0.1984036E+05 -0.1109836E-02  0.1565397E-02 -0.2094201E-03  0.1061553E+03  0.1570884E+01  0.6717991E-04  0.1108934E+01
  0.3600000E+00  0.8758641E+03 -0.1570708E+01  0.1126528E-02 -0.8465606E-03  0.1982508E+05 -0.1176701E-02  0.1890600E-02  0.3310304E-03  0.1093375E+03  0.1570885E+01  0.3916231E-04 -0.1560523E+01
  0.3700000E+00  0.9010082E+03 -0.1570702E+01  0.9314719E-03 -0.7678769E-03  0.1980952E+05 -0.1245578E-02  0.4756482E-03  0.3634064E-02  0.1124975E+03  0.1570894E+01  0.1280976E-03  0.2756528E+01
  0.3800000E+00  0.9261093E+03 -0.1570694E+01  0.2292234E-03 -0.1092142E-01  0.1979348E+05 -0.1316727E-02  0.4409567E-03  0.2635841E-02  0.1156371E+03  0.1570898E+01  0.7244173E-04  0.1191756E+00
  0.3900000E+00  0.9509854E+03 -0.1570692E+01  0.1716763E-02  0.3141107E+01  0.1977707E+05 -0.1390104E-02  0.7071214E-03 -0.3139359E+01  0.1187432E+03  0.1570913E+01  0.5809091E-04  0.3018669E+01
  0.4000000E+00  0.9758833E+03 -0.1570685E+01  0.8881713E-03 -0.2315278E-02  0.1976015E+05 -0.1465792E-02  0.2840817E-02  0.6294243E-04  0.1218809E+03  0.1570899E+01  0.8126238E-04  0.5468978E+00
  0.4100000E+00  0.1000768E+04 -0.1570680E+01  0.6454914E-03  0.3001054E-02  0.1974273E+05 -0.1543802E-02  0.2548337E-02 -0.2923703E-03  0.1250345E+03  0.1570916E+01  0.1592912E-04 -0.2293230E+00
  0.4200000E+00  0.1025711E+04 -0.1570672E+01  0.3325355E-03  0.2688651E-02  0.1972499E+05 -0.1624221E-02  0.2727449E-02  0.3141243E+01  0.1282005E+03  0.1570921E+01  0.4851268E-04 -0.7771447E+00
  0.4300000E+00  0.1050703E+04 -0.1570665E+01  0.2755385E-05 -0.2463474E+01  0.1970679E+05 -0.1707094E-02  0.5500717E-04 -0.3098236E+01  0.1313392E+03  0.1570930E+01  0.1517141E-03  0.1810219E+00
  0.4400000E+00  0.1075718E+04 -0.1570656E+01  0.4195900E-03 -0.3137757E+01  0.1968826E+05 -0.1792478E-02  0.7132352E-02 -0.3141304E+01  0.1344484E+03  0.1570939E+01  0.1429302E-03 -0.1213466E+01
  0.4500000E+00  0.1100950E+04 -0.1570653E+01  0.4674508E-03  0.3139169E+01  0.1966937E+05 -0.1879899E-02  0.3568829E-02 -0.3140841E+01  0.1375760E+03  0.1570941E+01  0.1959369E-03 -0.3060697E+00
  0.4600000E+00  0.1126412E+04 -0.1570644E+01  0.4944711E-03  0.3132432E+01  0.1964999E+05 -0.1969812E-02  0.2016012E-02 -0.1951331E-02  0.1407880E+03  0.1570946E+01  0.2005000E-03 -0.9031240E+00
  0.4700000E+00  0.1152159E+04 -0.1570634E+01  0.2531545E-03  0.3131232E+01  0.1963021E+05 -0.2062273E-02  0.2598288E-02  0.1066710E-02  0.1440768E+03  0.1570959E+01  0.1075578E-03 -0.1575645E+01
  0.4800000E+00  0.1178069E+04 -0.1570628E+01  0.7596621E-03 -0.3140102E+01  0.1961021E+05 -0.2156873E-02  0.2479197E-02  0.1394431E-02  0.1473771E+03  0.1570960E+01  0.1480101E-03  0.8002266E-01
  0.4900000E+00  0.1203855E+04 -0.1570619E+01  0.3072486E-04 -0.7573043E-01  0.1958969E+05 -0.2254097E-02  0.1615765E-02 -0.3139988E+01  0.1506401E+03  0.1570974E+01  0.4510369E-04 -0.3117804E+01
  0.5000000E+00  0.1229736E+04 -0.1570613E+01  0.7953077E-03  0.3138895E+01  0.1956879E+05 -0.2353909E-02  0.1285138E-02 -0.3139668E+01  0.1539122E+03  0.1570986E+01  0.1137090E-03 -0.9227872E+00
  0.5100000E+00  0.1255637E+04 -0.1570603E+01  0.4817327E-04  0.3052389E+01  0.1954751E+05 -0.2456395E-02  0.3075482E-02  0.1104694E-02  0.1571764E+03  0.1570994E+01  0.2348395E-03 -0.3043465E+01
  0.5200000E+00  0.1281567E+04 -0.1570595E+01  0.7910264E-04 -0.3128029E+01  0.1952578E+05 -0.2561622E-02  0.3139856E-02 -0.3140188E+01  0.1604451E+03  0.1571001E+01  0.1263024E-03 -0.2755478E+01
  0.5300000E+00  0.1307650E+04 -0.1570585E+01  0.5603475E-03 -0.3137763E+01  0.1950369E+05 -0.2669685E-02  0.1808822E-02 -0.4613306E-03  0.1637641E+03  0.1571005E+01  0.1080049E-03  0.1192647E+01
  0.5400000E+00  0.1333815E+04 -0.1570577E+01  0.1750842E-03 -0.3124570E+01  0.1948098E+05 -0.2780532E-02  0.3218277E-03  0.3129832E+01  0.1670961E+03  0.1571017E+01  0.1456396E-03 -0.2068493E+01
  0.5500000E+00  0.1359930E+04 -0.1570567E+01  0.2698899E-03  0.3141151E+01  0.1945803E+05 -0.2894380E-02  0.7067564E-03 -0.3133328E+01  0.1704241E+03  0.1571029E+01  0.4111194E-03  0.3021184E+01
  0.5600000E+00  0.1386091E+04 -0.1570558E+01  0.3786706E-03  0.3138129E+01  0.1943453E+05 -0.3011319E-02  0.4325927E-02  0.3375721E-03  0.1737434E+03  0.1571035E+01  0.1097613E-03  0.7542902E+00
  0.5700001E+00  0.1412438E+04 -0.1570547E+01  0.7103979E-04 -0.3103827E+01  0.1941076E+05 -0.3131632E-02  0.9949435E-03 -0.3134823E+01  0.1770433E+03  0.1571042E+01  0.1863358E-03  0.2661994E+01
  0.5800000E+00  0.1438875E+04 -0.1570535E+01  0.5217235E-03 -0.3884364E-02  0.1938665E+05 -0.3254477E-02  0.1313930E-02  0.3138758E+01  0.1803424E+03  0.1571058E+01  0.1730862E-03  0.2886591E+01
  0.5900000E+00  0.1465434E+04 -0.1570526E+01  0.1249434E-02  0.1812800E-02  0.1936213E+05 -0.3379756E-02  0.1935971E-03 -0.3540626E-02  0.1836466E+03  0.1571074E+01  0.1562285E-03  0.4847234E-01
  0.6000000E+00  0.1492039E+04 -0.1570513E+01  0.8916261E-03  0.3140924E+01  0.1933721E+05 -0.3508093E-02  0.2392888E-02 -0.1868181E-03  0.1870227E+03  0.1571077E+01  0.9156405E-04  0.2356424E+01
  0.6100000E+00  0.1518745E+04 -0.1570502E+01  0.2622613E-03  0.3139093E+01  0.1931173E+05 -0.3639842E-02  0.2391221E-02  0.9222789E-03  0.1904463E+03  0.1571091E+01  0.5894916E-04 -0.1910453E+01
  0.6200000E+00  0.1545618E+04 -0.1570488E+01  0.2081454E-02 -0.2577246E-03  0.1928602E+05 -0.3774180E-02  0.1703510E-02  0.3254012E-02  0.1939117E+03  0.1571102E+01  0.2250544E-03 -0.3121198E+01
  0.6300000E+00  0.1572331E+04 -0.1570476E+01  0.2234454E-03  0.3121051E+01  0.1926004E+05 -0.3911058E-02  0.3354193E-02 -0.8529688E-03  0.1973428E+03  0.1571115E+01  0.2139237E-04  0.1759994E+01
  0.6400000E+00  0.1599079E+04 -0.1570466E+01  0.1000524E-02  0.5957343E-03  0.1923358E+05 -0.4051293E-02  0.5030636E-03 -0.1244074E-02  0.2007601E+03  0.1571128E+01  0.1574590E-03  0.6565613E+00
  0.6500000E+00  0.1625944E+04 -0.1570452E+01  0.7870847E-03  0.3137882E+01  0.1920697E+05 -0.4194890E-02  0.3278617E-02  0.1599825E-02  0.2041943E+03  0.1571143E+01  0.1634009E-03 -0.2797808E+01
  0.6600000E+00  0.1652900E+04 -0.1570440E+01  0.6423945E-03  0.1048491E-01  0.1917972E+05 -0.4341949E-02  0.1395618E-02  0.7089657E-02  0.2076411E+03  0.1571158E+01  0.1966813E-03  0.2518155E+01
  0.6700001E+00  0.1679850E+04 -0.1570426E+01  0.1083612E-02 -0.3141537E+01  0.1915177E+05 -0.4492449E-02  0.5649351E-03  0.3120859E+01  0.2110628E+03  0.1571166E+01  0.2071070E-03  0.2268371E+01
  0.6800001E+00  0.1706878E+04 -0.1570410E+01  0.9961368E-03  0.3134652E+01  0.1912371E+05 -0.4646634E-02  0.3330350E-02 -0.4563843E-03  0.2145121E+03  0.1571185E+01  0.6043675E-04  0.2731780E+01
  0.6900001E+00  0.1734211E+04 -0.1570397E+01  0.1679599E-02  0.3141308E+01  0.1909522E+05 -0.4804537E-02  0.2255941E-02 -0.4676566E-02  0.2180294E+03  0.1571200E+01  0.1595122E-03  0.4223598E+00
  0.7000000E+00  0.1761660E+04 -0.1570381E+01  0.4384427E-04 -0.1117081E+00  0.1906629E+05 -0.4966317E-02  0.2209115E-02 -0.6596958E-02  0.2215645E+03  0.1571212E+01  0.3649773E-04 -0.3806581E+00
  0.7100000E+00  0.1789255E+04 -0.1570367E+01  0.5044145E-04  0.1398918E+00  0.1903695E+05 -0.5132148E-02  0.7027574E-03  0.3134299E+01  0.2251231E+03  0.1571229E+01  0.8267938E-04  0.2511790E+01
  0.7200000E+00  0.1817016E+04 -0.1570347E+01  0.5267874E-03 -0.3139216E+01  0.1900716E+05 -0.5302055E-02  0.2269626E-02 -0.3140752E+01  0.2287036E+03  0.1571242E+01  0.7702230E-04  0.1849096E+01
  0.7300000E+00  0.1845134E+04 -0.1570331E+01  0.1560689E-02 -0.3140103E+01  0.1897704E+05 -0.5476413E-02  0.3109097E-02 -0.3141592E+01  0.2323090E+03  0.1571258E+01  0.7851401E-04  0.1891706E+01
  0.7400000E+00  0.1873340E+04 -0.1570314E+01  0.1506228E-02 -0.5065253E-02  0.1894659E+05 -0.5655630E-02  0.3290417E-02 -0.3140307E+01  0.2358900E+03  0.1571276E+01  0.2585559E-04  0.2762584E+01
  0.7500000E+00  0.1901678E+04 -0.1570300E+01  0.7475697E-03 -0.4704159E-02  0.1891576E+05 -0.5839207E-02  0.1507055E-02  0.3137776E+01  0.2394829E+03  0.1571297E+01  0.1512762E-03  0.2685846E+00
  0.7600000E+00  0.1930146E+04 -0.1570279E+01  0.8302262E-03 -0.3130321E+01  0.1888463E+05 -0.6024084E-02  0.2429131E-02 -0.3140022E+01  0.2430853E+03  0.1571313E+01  0.1290826E-03  0.1278035E+01
  0.7700000E+00  0.1958839E+04 -0.1570261E+01  0.1819271E-02  0.3137235E+01  0.1885303E+05 -0.6213330E-02  0.5836808E-03 -0.3118819E+01  0.2467237E+03  0.1571332E+01  0.1781815E-03  0.3101608E+01
  0.7800000E+00  0.1987644E+04 -0.1570243E+01  0.7842836E-03 -0.3137793E+01  0.1882099E+05 -0.6407178E-02  0.1937391E-02 -0.1184469E-02  0.2504412E+03  0.1571348E+01  0.1845109E-03  0.1807862E+01
  0.7900000E+00  0.2016645E+04 -0.1570223E+01  0.7491125E-03 -0.1909610E-02  0.1878848E+05 -0.6606073E-02  0.3126742E-02 -0.1077053E-02  0.2542092E+03  0.1571372E+01  0.3450802E-04 -0.2331154E+01
  0.8000000E+00  0.2045828E+04 -0.1570204E+01  0.5897329E-03  0.3137651E+01  0.1875562E+05 -0.6808737E-02  0.1987815E-02  0.3141383E+01  0.2580210E+03  0.1571391E+01  0.1543074E-03  0.2860162E+01
  0.8099999E+00  0.2075128E+04 -0.1570182E+01  0.1471281E-02  0.1620466E-03  0.1872271E+05 -0.7012542E-02  0.1598378E-02 -0.3136707E+01  0.2618446E+03  0.1571412E+01  0.1050998E-03 -0.2441916E+01
  0.8200001E+00  0.2104377E+04 -0.1570160E+01  0.3292266E-03 -0.3118236E+01  0.1868940E+05 -0.7221187E-02  0.6156454E-02  0.1679764E-02  0.2656447E+03  0.1571434E+01  0.2798766E-03  0.2311906E+01
  0.8300000E+00  0.2133588E+04 -0.1570138E+01  0.7806180E-03  0.9544617E-02  0.1865558E+05 -0.7434709E-02  0.1265227E-02 -0.9681220E-02  0.2694289E+03  0.1571451E+01  0.2460923E-03  0.1298226E+00
  0.8400000E+00  0.2162862E+04 -0.1570117E+01  0.9814335E-04  0.5590277E-01  0.1862126E+05 -0.7653060E-02  0.9685077E-03 -0.3131284E+01  0.2732205E+03  0.1571477E+01  0.2640507E-04 -0.3025077E+01
  0.8500000E+00  0.2192351E+04 -0.1570093E+01  0.7511415E-03 -0.3174089E-02  0.1858694E+05 -0.7876318E-02  0.6174982E-02  0.4416080E-02  0.2770458E+03  0.1571500E+01  0.2016951E-03  0.7890550E+00
  0.8600000E+00  0.2221921E+04 -0.1570069E+01  0.1020552E-02  0.1576916E-02  0.1855185E+05 -0.8104673E-02  0.1745817E-03 -0.5841507E-01  0.2808611E+03  0.1571522E+01  0.5070598E-04 -0.2830994E+01
  0.8700000E+00  0.2251643E+04 -0.1570047E+01  0.7200242E-03 -0.3140847E+01  0.1851666E+05 -0.8338098E-02  0.2812397E-02  0.2797546E-02  0.2846879E+03  0.1571546E+01  0.2394729E-03 -0.7049682E+00
  0.8800000E+00  0.2281549E+04 -0.1570018E+01  0.9558451E-03 -0.7233597E-02  0.1848097E+05 -0.8577013E-02  0.1676901E-02  0.3130466E+01  0.2885838E+03  0.1571571E+01  0.1482841E-03 -0.5740666E+00
  0.8900001E+00  0.2311602E+04 -0.1569992E+01  0.6833191E-04  0.2704401E-01  0.1844485E+05 -0.8821594E-02  0.2935412E-03 -0.1807277E-01  0.2925077E+03  0.1571597E+01  0.6580376E-04 -0.1284285E+01
  0.9000000E+00  0.2341747E+04 -0.1569965E+01  0.3688493E-03 -0.9211115E-02  0.1840811E+05 -0.9072035E-02  0.2558262E-02  0.4846187E-02  0.2964579E+03  0.1571629E+01  0.4975023E-03 -0.2497420E+01
  0.9100001E+00  0.2372058E+04 -0.1569937E+01  0.2274160E-02  0.2096764E-02  0.1837108E+05 -0.9328609E-02  0.1911484E-02 -0.9245712E-02  0.3004349E+03  0.1571656E+01  0.2758843E-03 -0.8145812E+00
  0.9200000E+00  0.2402493E+04 -0.1569908E+01  0.1934772E-03  0.3139436E+01  0.1833342E+05 -0.9591392E-02  0.6494943E-03 -0.3997685E-01  0.3044279E+03  0.1571685E+01  0.1301806E-03 -0.1741026E+01
  0.9300001E+00  0.2433189E+04 -0.1569878E+01  0.3521569E-03  0.8462925E-02  0.1829573E+05 -0.9860867E-02  0.1904250E-02  0.9233753E-03  0.3084659E+03  0.1571717E+01  0.1670754E-03  0.4909332E+00
  0.9400001E+00  0.2463911E+04 -0.1569849E+01  0.7094679E-03  0.1226624E-01  0.1825766E+05 -0.1013740E-01  0.7557907E-03  0.3193961E-02  0.3124563E+03  0.1571747E+01  0.9622479E-04  0.6283866E+00
  0.9500000E+00  0.2494893E+04 -0.1569816E+01  0.1599813E-03 -0.5588610E-02  0.1821928E+05 -0.1042268E-01  0.1812696E-02  0.3141017E+01  0.3164618E+03  0.1571775E+01  0.3315705E-03 -0.1431568E+01
  0.9600000E+00  0.2526043E+04 -0.1569784E+01  0.2683069E-03  0.3116265E+01  0.1818059E+05 -0.1071461E-01  0.2187978E-02 -0.3091960E-02  0.3204847E+03  0.1571810E+01  0.1433153E-03 -0.2914965E+00
  0.9700000E+00  0.2557401E+04 -0.1569751E+01  0.5185031E-04  0.3006687E+01  0.1814152E+05 -0.1100602E-01  0.1529924E-02  0.3124255E+01  0.3245298E+03  0.1571844E+01  0.3109163E-03 -0.2248830E+01
  0.9800000E+00  0.2588914E+04 -0.1569716E+01  0.6331351E-03 -0.6778286E-02  0.1810215E+05 -0.1130446E-01  0.3041747E-02  0.3140319E+01  0.3285921E+03  0.1571877E+01  0.2824858E-04  0.2329333E+01
  0.9900000E+00  0.2620754E+04 -0.1569682E+01  0.8390547E-04  0.3069071E+01  0.1806225E+05 -0.1161004E-01  0.9576135E-03  0.1612161E-01  0.3327506E+03  0.1571911E+01  0.1319077E-03 -0.3703531E+00
  0.1000000E+01  0.2652653E+04 -0.1569642E+01  0.6873903E-03 -0.3120781E+01  0.1802186E+05 -0.1192391E-01  0.3047947E-02 -0.3139970E+01  0.3369465E+03  0.1571949E+01  0.5077205E-04  0.2713653E+01
  0.1010000E+01  0.2684832E+04 -0.1569605E+01  0.2631136E-03 -0.5348794E-01  0.1798098E+05 -0.1224663E-01  0.3613223E-04  0.1391681E+01  0.3412179E+03  0.1571988E+01  0.1984982E-03 -0.8511612E+00
  0.1020000E+01  0.2717282E+04 -0.1569567E+01  0.4357112E-03 -0.3139130E+01  0.1793986E+05 -0.1257334E-01  0.4076025E-02  0.3209804E-02  0.3455420E+03  0.1572025E+01  0.6297258E-04 -0.2415461E+01
  0.1030000E+01  0.2750496E+04 -0.1569528E+01  0.3104771E-03 -0.3122586E+01  0.1789889E+05 -0.1289565E-01  0.4108562E-03  0.3080115E+01  0.3499697E+03  0.1572065E+01  0.6824241E-04  0.2530937E+01
  0.1040000E+01  0.2783285E+04 -0.1569486E+01  0.1494147E-03 -0.3068125E+01  0.1785751E+05 -0.1322690E-01  0.4456059E-02  0.3139011E+01  0.3543200E+03  0.1572106E+01  0.5846431E-04  0.9581909E+00
  0.1050000E+01  0.2816255E+04 -0.1569445E+01  0.2520290E-03  0.1277130E-01  0.1781577E+05 -0.1356594E-01  0.1577033E-02 -0.3128628E+01  0.3586771E+03  0.1572146E+01  0.1518853E-03 -0.2495109E+01
  0.1060000E+01  0.2849524E+04 -0.1569402E+01  0.1260839E-02 -0.3130152E+01  0.1777359E+05 -0.1391281E-01  0.1415298E-02 -0.7980797E-02  0.3630735E+03  0.1572193E+01  0.1942034E-03 -0.2308322E+01
  0.1070000E+01  0.2883133E+04 -0.1569357E+01  0.1242877E-02  0.1294840E-02  0.1773102E+05 -0.1426715E-01  0.5453122E-03 -0.3128202E+01  0.3675160E+03  0.1572236E+01  0.2068919E-03 -0.1310899E+01
  0.1080000E+01  0.2917193E+04 -0.1569311E+01  0.2972363E-03  0.3349469E-01  0.1768813E+05 -0.1462927E-01  0.2875390E-03 -0.5797070E-01  0.3720182E+03  0.1572282E+01  0.7634485E-04  0.1069081E+01
  0.1090000E+01  0.2951279E+04 -0.1569264E+01  0.1056433E-02 -0.3140690E+01  0.1764487E+05 -0.1499957E-01  0.2268032E-03 -0.1909014E+00  0.3765000E+03  0.1572330E+01  0.3405980E-03 -0.8761028E+00
  0.1100000E+01  0.2985571E+04 -0.1569214E+01  0.8487709E-03 -0.3140329E+01  0.1760128E+05 -0.1537802E-01  0.2863165E-03 -0.5623757E-01  0.3810070E+03  0.1572378E+01  0.3610744E-04 -0.3003315E+01
  0.1110000E+01  0.3020128E+04 -0.1569164E+01  0.6777079E-03  0.3122594E+01  0.1755728E+05 -0.1576536E-01  0.3926290E-02 -0.2497261E-02  0.3855931E+03  0.1572429E+01  0.1385666E-03  0.8176450E+00
  0.1120000E+01  0.3054990E+04 -0.1569110E+01  0.5083107E-03  0.3138544E+01  0.1751281E+05 -0.1616175E-01  0.1350361E-02  0.3096246E+01  0.3902437E+03  0.1572483E+01  0.2921689E-03  0.3061332E+01
  0.1130000E+01  0.3090086E+04 -0.1569058E+01  0.7681618E-03 -0.3107211E+01  0.1746809E+05 -0.1656751E-01  0.2574070E-02 -0.2122388E-01  0.3949381E+03  0.1572537E+01  0.1631210E-03  0.2776150E+01
  0.1140000E+01  0.3125348E+04 -0.1569001E+01  0.2560164E-02  0.3137192E+01  0.1742293E+05 -0.1698310E-01  0.1529008E-02  0.3135375E+01  0.3996625E+03  0.1572594E+01  0.2348888E-03 -0.2784366E+01
  0.1150000E+01  0.3160872E+04 -0.1568944E+01  0.6502630E-03  0.3124452E+01  0.1737745E+05 -0.1740894E-01  0.1986271E-02  0.3139312E+01  0.4044301E+03  0.1572651E+01  0.2408805E-03 -0.2557811E+01
  0.1160000E+01  0.3196625E+04 -0.1568884E+01  0.1128700E-02 -0.3134780E+01  0.1733142E+05 -0.1784554E-01  0.1212168E-02 -0.3132668E+01  0.4092351E+03  0.1572711E+01  0.1180477E-03  0.2683139E+01
  0.1170000E+01  0.3232664E+04 -0.1568821E+01  0.3343824E-03  0.3114852E+01  0.1728515E+05 -0.1829312E-01  0.2190672E-02  0.8672782E-02  0.4140823E+03  0.1572772E+01  0.2204680E-03  0.2090210E+01
  0.1180000E+01  0.3269042E+04 -0.1568757E+01  0.1339180E-02 -0.3123388E+01  0.1723878E+05 -0.1875313E-01  0.1967603E-02  0.3115909E+01  0.4189189E+03  0.1572836E+01  0.1750546E-03  0.2713584E+01
  0.1190000E+01  0.3305676E+04 -0.1568692E+01  0.1201153E-02  0.3140898E+01  0.1719216E+05 -0.1922719E-01  0.4926717E-03 -0.3084094E+01  0.4237575E+03  0.1572902E+01  0.7525083E-04 -0.2682905E+01
  0.1200000E+01  0.3342439E+04 -0.1568625E+01  0.7392259E-03  0.1862687E-01  0.1714526E+05 -0.1972119E-01  0.8514326E-03  0.3131915E+01  0.4286100E+03  0.1572969E+01  0.1620483E-03 -0.1411967E+01
  0.1210000E+01  0.3379361E+04 -0.1568555E+01  0.4222769E-04 -0.2837698E+01  0.1709800E+05 -0.2020515E-01  0.1040657E-02  0.4189533E-01  0.4334736E+03  0.1573039E+01  0.2464140E-03  0.2259062E+01
  0.1220000E+01  0.3416539E+04 -0.1568483E+01  0.1949171E-03  0.3105195E+01  0.1705038E+05 -0.2070093E-01  0.5283527E-03  0.3133527E+01  0.4383641E+03  0.1573110E+01  0.3301045E-03 -0.2266125E+01
  0.1230000E+01  0.3454093E+04 -0.1568408E+01  0.3055922E-03 -0.3413974E-01  0.1700251E+05 -0.2120882E-01  0.2730879E-02  0.1408381E-01  0.4433007E+03  0.1573184E+01  0.1803612E-03  0.1310774E+00
  0.1240000E+01  0.3492083E+04 -0.1568331E+01  0.2393790E-03  0.7469980E-02  0.1695406E+05 -0.2173028E-01  0.1199360E-03  0.3014649E+01  0.4484004E+03  0.1573262E+01  0.2915006E-03 -0.2584077E+01
  0.1250000E+01  0.3530374E+04 -0.1568252E+01  0.1981741E-03  0.1851263E+00  0.1690517E+05 -0.2226695E-01  0.3757188E-03  0.3008776E+01  0.4535482E+03  0.1573344E+01  0.1729139E-03 -0.8484479E+00
  0.1260000E+01  0.3569069E+04 -0.1568171E+01  0.2019303E-03  0.3094051E+01  0.1685595E+05 -0.2282066E-01  0.3081589E-02 -0.1315790E-01  0.4588075E+03  0.1573426E+01  0.3180553E-03  0.1007797E+01
  0.1270000E+01  0.3608070E+04 -0.1568086E+01  0.6559456E-03  0.3128507E+01  0.1680628E+05 -0.2338289E-01  0.9379479E-03  0.4448401E-02  0.4641232E+03  0.1573508E+01  0.2700392E-03 -0.2675872E+01
  0.1280000E+01  0.3647354E+04 -0.1567999E+01  0.4567411E-03  0.1106283E+00  0.1675742E+05 -0.2391947E-01  0.2777046E-04 -0.4274044E+00  0.4694812E+03  0.1573596E+01  0.1489763E-03  0.2533947E+01
  0.1290000E+01  0.3686529E+04 -0.1567911E+01  0.1601369E-03 -0.3052516E+01  0.1670820E+05 -0.2447083E-01  0.5323660E-03  0.2847013E-01  0.4748098E+03  0.1573682E+01  0.2652796E-03 -0.2934988E+01
  0.1300000E+01  0.3725955E+04 -0.1567820E+01  0.1813650E-02  0.2294141E-01  0.1665848E+05 -0.2503559E-01  0.1196935E-02 -0.3130519E+01  0.4801577E+03  0.1573774E+01  0.1498208E-03 -0.9742975E+00
  0.1310000E+01  0.3765603E+04 -0.1567727E+01  0.1395008E-03 -0.3080027E+01  0.1660802E+05 -0.2561371E-01  0.8388928E-03 -0.3123571E+01  0.4855257E+03  0.1573867E+01  0.2100732E-03 -0.2777973E+01
  0.1320000E+01  0.3805578E+04 -0.1567631E+01  0.4674794E-03 -0.3113921E+01  0.1655762E+05 -0.2620421E-01  0.1177830E-02 -0.8467031E-02  0.4909390E+03  0.1573965E+01  0.2427894E-03  0.1720123E+01
  0.1330000E+01  0.3845912E+04 -0.1567530E+01  0.1663459E-03  0.6992900E-01  0.1650682E+05 -0.2680688E-01  0.2672674E-03  0.2905984E+00  0.4964091E+03  0.1574065E+01  0.2444273E-03 -0.2980934E+01
  0.1340000E+01  0.3886419E+04 -0.1567427E+01  0.1402621E-02  0.2337239E-02  0.1645650E+05 -0.2742197E-01  0.1010329E-02 -0.4137763E-01  0.5019064E+03  0.1574167E+01  0.1297702E-03  0.2392253E+01
  0.1350000E+01  0.3927177E+04 -0.1567320E+01  0.8233942E-03  0.1809824E-01  0.1640446E+05 -0.2805072E-01  0.1203530E-02  0.3113641E+01  0.5073990E+03  0.1574273E+01  0.1483694E-03  0.4169191E+00
  0.1360000E+01  0.3968201E+04 -0.1567210E+01  0.1101017E-02 -0.3141539E+01  0.1635354E+05 -0.2869289E-01  0.1285282E-02 -0.1788858E-01  0.5129238E+03  0.1574385E+01  0.2012678E-03 -0.2244242E+01
  0.1370000E+01  0.4009616E+04 -0.1567096E+01  0.8518694E-03  0.3117941E+01  0.1630151E+05 -0.2934913E-01  0.2548232E-02 -0.3138237E+01  0.5185646E+03  0.1574499E+01  0.2765471E-03  0.5644480E+00
  0.1380000E+01  0.4051499E+04 -0.1566980E+01  0.1298913E-02  0.3671059E-02  0.1624914E+05 -0.3002030E-01  0.3642702E-02 -0.3132752E+01  0.5243078E+03  0.1574616E+01  0.2479884E-03  0.1718914E+01
  0.1390000E+01  0.4093610E+04 -0.1566857E+01  0.1259603E-02 -0.7713264E-02  0.1619766E+05 -0.3070655E-01  0.1728357E-02  0.3111620E+01  0.5300905E+03  0.1574737E+01  0.2403375E-03  0.1718147E+01
  0.1400000E+01  0.4136086E+04 -0.1566732E+01  0.2373758E-02  0.1594541E-01  0.1614382E+05 -0.3140876E-01  0.4273083E-02 -0.3133364E+01  0.5359355E+03  0.1574864E+01  0.5817245E-03  0.1590880E+01
  0.1410000E+01  0.4178848E+04 -0.1566601E+01  0.3209184E-03  0.3055120E+01  0.1609205E+05 -0.3212782E-01  0.2493052E-02 -0.3130744E+01  0.5418262E+03  0.1574994E+01  0.7706311E-04 -0.2235994E+01
  0.1420000E+01  0.4221868E+04 -0.1566467E+01  0.9642700E-03 -0.3126819E+01  0.1603815E+05 -0.3286397E-01  0.2669119E-03 -0.2138852E+00  0.5477592E+03  0.1575128E+01  0.1792292E-03 -0.2014922E+01
  0.1430000E+01  0.4265302E+04 -0.1566328E+01  0.2127652E-03  0.3085535E+01  0.1598458E+05 -0.3361819E-01  0.2382777E-02 -0.4277531E-02  0.5537576E+03  0.1575268E+01  0.1433312E-03  0.1519208E+01
  0.1440000E+01  0.4309497E+04 -0.1566184E+01  0.6003656E-04 -0.1881558E+01  0.1593072E+05 -0.3439155E-01  0.3946309E-02  0.3140067E+01  0.5598596E+03  0.1575412E+01  0.1638650E-03 -0.9032131E+00
  0.1450000E+01  0.4353990E+04 -0.1566035E+01  0.1644526E-02 -0.3127947E+01  0.1587746E+05 -0.3518620E-01  0.8508527E-03 -0.3915202E-01  0.5658813E+03  0.1575561E+01  0.1571867E-03  0.2355793E+01
  0.1460000E+01  0.4398816E+04 -0.1565884E+01  0.1158285E-02 -0.3132510E+01  0.1582360E+05 -0.3600646E-01  0.1983749E-02 -0.1035870E-01  0.5719394E+03  0.1575712E+01  0.5076991E-04 -0.9919110E+00
  0.1470000E+01  0.4444206E+04 -0.1565727E+01  0.1056377E-02  0.1862088E-01  0.1576940E+05 -0.3685390E-01  0.1615101E-03 -0.2957695E+01  0.5780704E+03  0.1575870E+01  0.3842658E-03 -0.1857640E+01
  0.1480000E+01  0.4490053E+04 -0.1565564E+01  0.4143648E-03  0.3108143E+01  0.1571572E+05 -0.3768954E-01  0.1458510E-02  0.3349660E-01  0.5842448E+03  0.1576032E+01  0.4935397E-03  0.1237111E+01
  0.1490000E+01  0.4536517E+04 -0.1565396E+01  0.3311149E-04 -0.1124055E+01  0.1566142E+05 -0.3854521E-01  0.8023291E-04 -0.2255186E+00  0.5904886E+03  0.1576199E+01  0.2606626E-03  0.1396588E+01
  0.1500000E+01  0.4583787E+04 -0.1565222E+01  0.1019057E-02 -0.1049915E-01  0.1560647E+05 -0.3942291E-01  0.8194741E-03 -0.2556922E-01  0.5968267E+03  0.1576373E+01  0.2756836E-03 -0.5429687E+00
  0.1510000E+01  0.4631507E+04 -0.1565041E+01  0.1939203E-03 -0.2777354E+01  0.1555134E+05 -0.4032403E-01  0.2594570E-02 -0.4776721E-01  0.6033662E+03  0.1576554E+01  0.6611473E-03  0.1355658E+01
  0.1520000E+01  0.4679681E+04 -0.1564855E+01  0.9010354E-03 -0.3089044E+01  0.1549590E+05 -0.4125228E-01  0.2419101E-02 -0.3132217E+01  0.6100019E+03  0.1576741E+01  0.2702928E-03  0.1568591E+01
  0.1530000E+01  0.4728398E+04 -0.1564663E+01  0.8978844E-03 -0.3141160E+01  0.1543981E+05 -0.4221162E-01  0.4997563E-03  0.2977581E+01  0.6167753E+03  0.1576935E+01  0.1208510E-03  0.9002147E+00
  0.1540000E+01  0.4777599E+04 -0.1564466E+01  0.4498868E-03  0.3193505E-01  0.1538372E+05 -0.4320742E-01  0.1389476E-02 -0.3116152E+01  0.6236479E+03  0.1577133E+01  0.2624833E-03 -0.1168551E+01
  0.1550000E+01  0.4827411E+04 -0.1564264E+01  0.1154516E-02 -0.3128866E+01  0.1532850E+05 -0.4411409E-01  0.1488365E-02 -0.8522315E-01  0.6306226E+03  0.1577335E+01  0.1745508E-03  0.1644622E+01
  0.1560000E+01  0.4877152E+04 -0.1564058E+01  0.5924676E-03  0.3113370E+01  0.1527309E+05 -0.4503244E-01  0.2143795E-02  0.1960262E-01  0.6375674E+03  0.1577539E+01  0.2873488E-03  0.9418781E+00
  0.1570000E+01  0.4927068E+04 -0.1563847E+01  0.4098052E-04  0.7979974E+00  0.1521775E+05 -0.4597290E-01  0.3036073E-02  0.3135801E+01  0.6445255E+03  0.1577750E+01  0.2114716E-03  0.1536967E+01
  0.1580000E+01  0.4977326E+04 -0.1563630E+01  0.5011614E-03  0.4757339E-02  0.1516169E+05 -0.4693544E-01  0.2783789E-02  0.3138510E+01  0.6515016E+03  0.1577968E+01  0.6420380E-03  0.1455423E+01
  0.1590000E+01  0.5027584E+04 -0.1563405E+01  0.1686734E-02 -0.3127793E+01  0.1510438E+05 -0.4791738E-01  0.3274451E-02 -0.3139081E+01  0.6584800E+03  0.1578193E+01  0.2742646E-03 -0.7289706E+00
  0.1600000E+01  0.5078645E+04 -0.1563174E+01  0.7607400E-03  0.8220426E-01  0.1504851E+05 -0.4891712E-01  0.2940994E-02 -0.3118041E+01  0.6655740E+03  0.1578423E+01  0.3544029E-03  0.1241281E+01
  0.1610000E+01  0.5130691E+04 -0.1562936E+01  0.1318022E-02  0.3133453E+01  0.1499411E+05 -0.4993479E-01  0.1457079E-02 -0.3108083E+01  0.6728175E+03  0.1578660E+01  0.1962933E-03  0.1243092E+01
  0.1620000E+01  0.5182867E+04 -0.1562691E+01  0.4696354E-04 -0.1366306E+01  0.1493754E+05 -0.5097072E-01  0.1335146E-02 -0.3140119E+01  0.6800562E+03  0.1578907E+01  0.3827914E-03 -0.2922033E+01
  0.1630000E+01  0.5235137E+04 -0.1562437E+01  0.4136146E-03 -0.3110749E+01  0.1488092E+05 -0.5202496E-01  0.1627524E-03 -0.3467685E+00  0.6872660E+03  0.1579161E+01  0.4055410E-03  0.1265665E+01
  0.1640000E+01  0.5287520E+04 -0.1562176E+01  0.1124452E-02 -0.1118817E-01  0.1482490E+05 -0.5309851E-01  0.2517230E-02 -0.2273164E-02  0.6944921E+03  0.1579422E+01  0.1801283E-03 -0.2363280E+01
  0.1650000E+01  0.5340373E+04 -0.1561906E+01  0.8402315E-03 -0.3131311E+01  0.1476793E+05 -0.5419283E-01  0.1062304E-02 -0.4035324E-01  0.7018812E+03  0.1579692E+01  0.9497148E-04  0.1087808E+01