VARIABLES="w (rad/s)"
"A   1   1" "B   1   1"
"A   1   2" "B   1   2"
"A   1   3" "B   1   3"
"A   1   4" "B   1   4"
"A   1   5" "B   1   5"
"A   1   6" "B   1   6"
Zone t="Motion of body    1 in DoF   1",I=  2986,F=POINT
  0.1500000E+00  0.8524603E+03  0.4117760E-02  0.0000000E+00 -0.7275958E-11 -0.2032518E-03 -0.4863045E-05 -0.9934107E-07  0.1818989E-11 -0.1474081E+03 -0.5123907E-03  0.1579523E-04  0.7503331E-10
  0.1600000E+00  0.8539144E+03  0.5002903E-02  0.9313226E-07 -0.1091394E-10 -0.5792826E-04 -0.1587043E-05 -0.9313226E-07 -0.1818989E-11 -0.1478023E+03 -0.6230033E-03 -0.3697351E-04 -0.3865352E-09
  0.1700000E+00  0.8520451E+03  0.6006465E-02  0.0000000E+00  0.2182787E-10 -0.3479860E-04 -0.1538675E-05 -0.8765389E-07  0.2728484E-11 -0.1475333E+03 -0.7480350E-03 -0.5986761E-04 -0.2428351E-09
  0.1800000E+00  0.8501602E+03  0.7146340E-02  0.2483527E-06 -0.7275958E-11 -0.5182292E-04 -0.2467414E-05  0.2483527E-06  0.7275958E-11 -0.1474814E+03 -0.8902990E-03  0.3083712E-04  0.1700755E-09
  0.1900000E+00  0.8516794E+03  0.8416400E-02 -0.7842717E-06  0.7275958E-11  0.9262248E-04  0.4702011E-05 -0.2352815E-06  0.1455192E-10 -0.1474966E+03 -0.1048078E-02 -0.1204249E-03  0.3728928E-09
  0.2000000E+00  0.8546752E+03  0.9854453E-02  0.1490116E-06  0.9094947E-11  0.5401671E-04  0.2921759E-05 -0.7450581E-07 -0.3637979E-11 -0.1479004E+03 -0.1227513E-02 -0.9585172E-04  0.3556124E-09
  0.2100000E+00  0.8560123E+03  0.1144210E-01 -0.4967054E-06 -0.3637979E-11 -0.6670044E-05  0.3764180E-06 -0.4257475E-06 -0.3637979E-11 -0.1482520E+03 -0.1426982E-02  0.1227572E-04 -0.6348273E-09
  0.2200000E+00  0.8564584E+03  0.1318998E-01 -0.2709302E-06  0.1091394E-10  0.9821220E-05  0.1910834E-05  0.6773255E-07  0.0000000E+00 -0.1482687E+03 -0.1644640E-02 -0.2377413E-04  0.6348273E-09
  0.2300000E+00  0.8559585E+03  0.1510361E-01  0.0000000E+00 -0.3637979E-11  0.3919653E-04  0.1435452E-05 -0.1295753E-06  0.3637979E-11 -0.1481934E+03 -0.1883525E-02 -0.5377376E-05  0.1220542E-08
  0.2400000E+00  0.8562234E+03  0.1721076E-01 -0.2483527E-06 -0.3637979E-10  0.8872400E-04  0.4488345E-05 -0.3725290E-06  0.3637979E-11 -0.1482741E+03 -0.2146879E-02  0.1123796E-04 -0.7730705E-09
  0.2500000E+00  0.8559025E+03  0.1950699E-01  0.0000000E+00  0.2910383E-10 -0.2133846E-04 -0.2016946E-05 -0.5960464E-07 -0.7275958E-11 -0.1480953E+03 -0.2432168E-02 -0.3349781E-04  0.1818989E-08
  0.2600000E+00  0.8556023E+03  0.2200160E-01  0.1146243E-06  0.1091394E-10 -0.1303279E-03 -0.7998304E-05 -0.2292486E-06 -0.1091394E-10 -0.1479284E+03 -0.2742101E-02  0.7037933E-04 -0.5202310E-09
  0.2700000E+00  0.8560114E+03  0.2471742E-01  0.3311369E-06 -0.3637979E-10 -0.2495669E-03 -0.1277294E-04  0.1103790E-06  0.7275958E-11 -0.1481295E+03 -0.3082410E-02  0.7858982E-04  0.7148628E-09
  0.2800000E+00  0.8556433E+03  0.2764697E-01  0.2128737E-06  0.3637979E-10 -0.6322350E-04 -0.3121648E-05 -0.1064369E-06 -0.4365575E-10 -0.1481559E+03 -0.3449318E-02 -0.7296247E-04 -0.1491571E-09
  0.2900000E+00  0.8555466E+03  0.3081213E-01 -0.6165998E-06  0.0000000E+00  0.1644266E-04 -0.5096153E-06 -0.1541499E-06 -0.3637979E-10 -0.1481529E+03 -0.3844457E-02  0.2075886E-04  0.1775334E-08
  0.3000000E+00  0.8556895E+03  0.3422908E-01 -0.1986821E-06 -0.2910383E-10 -0.1460314E-04 -0.8513161E-06 -0.1986821E-06 -0.2910383E-10 -0.1481432E+03 -0.4270346E-02  0.1152356E-04  0.3303285E-08
  0.3100000E+00  0.8564382E+03  0.3792079E-01  0.1922730E-06 -0.7275958E-10  0.6037374E-04  0.5613394E-05  0.9613652E-07  0.2182787E-10 -0.1482947E+03 -0.4732912E-02 -0.4994292E-04  0.5122274E-08
  0.3200000E+00  0.8569221E+03  0.4188047E-01  0.1210719E-05  0.1018634E-09  0.3585592E-04  0.2566099E-05 -0.2793968E-06  0.2910383E-10 -0.1484205E+03 -0.5229040E-02 -0.1168810E-04  0.5202310E-09
  0.3300000E+00  0.8574521E+03  0.4610063E-01  0.9031007E-06 -0.5093170E-10 -0.8850387E-05 -0.6889532E-06  0.0000000E+00 -0.2182787E-10 -0.1483948E+03 -0.5753780E-02 -0.2483527E-04  0.4303729E-08
  0.3400000E+00  0.8579075E+03  0.5063853E-01  0.1753078E-06 -0.1018634E-09  0.1390191E-03  0.9495430E-05  0.8765389E-07 -0.2910383E-10 -0.1483226E+03 -0.6318309E-02 -0.4194238E-04  0.5522452E-08
  0.3500000E+00  0.8588260E+03  0.5548144E-01 -0.1702990E-06  0.1164153E-09  0.9672983E-04  0.8094139E-05  0.0000000E+00  0.1455192E-10 -0.1484471E+03 -0.6922491E-02  0.1734921E-03 -0.2408342E-08
  0.3600000E+00  0.8594309E+03  0.6064275E-01 -0.7450580E-06  0.0000000E+00  0.9180771E-04  0.8829651E-05 -0.2483527E-06  0.0000000E+00 -0.1486127E+03 -0.7571157E-02  0.1132074E-03 -0.7858034E-09
  0.3700000E+00  0.8600970E+03  0.6613518E-01 -0.8054682E-07 -0.1018634E-09 -0.1895267E-03 -0.1370950E-04  0.1610936E-06  0.5820766E-10 -0.1487094E+03 -0.8257726E-02 -0.1627046E-04 -0.1840817E-08
  0.3800000E+00  0.8605577E+03  0.7196760E-01  0.2352815E-06 -0.5820766E-10  0.1559132E-03  0.1285416E-04  0.1568543E-06  0.1455192E-10 -0.1487463E+03 -0.8986585E-02  0.8752471E-04  0.3623427E-08
  0.3900000E+00  0.8604621E+03  0.7814714E-01 -0.3056649E-06  0.1164153E-09 -0.2124371E-04 -0.3589666E-06  0.0000000E+00  0.8731149E-10 -0.1487024E+03 -0.9758613E-02  0.3232406E-04  0.1131411E-07
  0.4000000E+00  0.8603283E+03  0.8469430E-01  0.7450581E-07  0.1600711E-09 -0.8665025E-04 -0.7713927E-05  0.4470348E-06 -0.1018634E-09 -0.1487082E+03 -0.1057896E-01  0.1067668E-03 -0.8374627E-08
  0.4100000E+00  0.8600938E+03  0.9162739E-01 -0.2907544E-06 -0.1891749E-09  0.2326035E-04  0.3500798E-05 -0.2180658E-06 -0.4365575E-10 -0.1487306E+03 -0.1144836E-01  0.7294300E-04 -0.6511982E-08
  0.4200000E+00  0.8598907E+03  0.9898227E-01  0.0000000E+00  0.8731149E-10 -0.2951849E-04 -0.9174400E-06  0.3547896E-06  0.4365575E-10 -0.1487613E+03 -0.1237321E-01 -0.1308464E-03 -0.7144990E-08
  0.4300000E+00  0.8596993E+03  0.1067364E+00  0.2772309E-06  0.8731149E-10 -0.3569348E-04 -0.1468405E-05  0.6930772E-07  0.2910383E-10 -0.1487283E+03 -0.1334415E-01  0.9893678E-04  0.2401066E-08
  0.4400000E+00  0.8594731E+03  0.1149158E+00  0.0000000E+00 -0.5820766E-10  0.1587651E-03  0.1271351E-04 -0.2031977E-06 -0.1164153E-09 -0.1486329E+03 -0.1436448E-01 -0.1801686E-04 -0.4511094E-09
  0.4500000E+00  0.8595418E+03  0.1235681E+00  0.3973643E-06 -0.2037268E-09  0.1487467E-03  0.1015927E-04 -0.2649095E-06  0.0000000E+00 -0.1485601E+03 -0.1544369E-01 -0.2510018E-04 -0.1935405E-08
  0.4600000E+00  0.8599033E+03  0.1327197E+00  0.0000000E+00 -0.1746230E-09 -0.1088433E-04 -0.2741988E-05 -0.1295753E-06  0.2910383E-10 -0.1486178E+03 -0.1659111E-01  0.1626170E-04  0.9735231E-08
  0.4700000E+00  0.8606290E+03  0.1423789E+00  0.6340920E-06 -0.2619345E-09  0.1014547E-04 -0.3868307E-05  0.6340920E-07 -0.1455192E-09 -0.1487847E+03 -0.1780702E-01  0.1017083E-03 -0.3608875E-08
  0.4800000E+00  0.8614946E+03  0.1525678E+00 -0.3725290E-06  0.3492460E-09  0.1028180E-03  0.6339134E-05 -0.4346172E-06 -0.2037268E-09 -0.1489499E+03 -0.1908841E-01  0.1390775E-03  0.1976150E-07
  0.4900000E+00  0.8620460E+03  0.1632496E+00  0.4865685E-06  0.1455192E-09  0.1057070E-03  0.4849746E-05 -0.6082107E-07  0.0000000E+00 -0.1490363E+03 -0.2042952E-01 -0.2931575E-04  0.9487849E-08
  0.5000000E+00  0.8626257E+03  0.1745045E+00  0.5960464E-06 -0.2910383E-10 -0.2354383E-04 -0.3525434E-05  0.1192093E-06 -0.2910383E-10 -0.1491184E+03 -0.2184313E-01  0.3355742E-04  0.2939487E-08
  0.5100000E+00  0.8631298E+03  0.1863302E+00 -0.3506156E-06 -0.2619345E-09 -0.1072884E-03 -0.1410165E-04  0.2921796E-06  0.2910383E-10 -0.1491732E+03 -0.2332650E-01 -0.2273158E-04 -0.6868504E-08
  0.5200000E+00  0.8635677E+03  0.1987478E+00  0.2292486E-06  0.0000000E+00  0.2277585E-03  0.1908938E-04 -0.2865608E-06  0.0000000E+00 -0.1492184E+03 -0.2488425E-01  0.3616397E-04  0.9880750E-08
  0.5300000E+00  0.8641194E+03  0.2118184E+00  0.2249232E-06  0.4074536E-09  0.1491803E-03  0.1112837E-04  0.0000000E+00  0.1164153E-09 -0.1493192E+03 -0.2652962E-01  0.1945586E-04 -0.1612352E-07
  0.5400000E+00  0.8646741E+03  0.2255326E+00 -0.1103790E-06  0.2910383E-09  0.1905693E-03  0.1839985E-04  0.1655685E-06  0.5820766E-10 -0.1494223E+03 -0.2825844E-01 -0.3465899E-04 -0.1621083E-07
  0.5500000E+00  0.8650524E+03  0.2399178E+00 -0.1083721E-06  0.0000000E+00  0.1666763E-03  0.1445028E-04  0.0000000E+00 -0.1164153E-09 -0.1495017E+03 -0.3006989E-01  0.1977790E-04  0.9895302E-09
  0.5600000E+00  0.8653887E+03  0.2549856E+00 -0.3193106E-06 -0.4656613E-09  0.4389456E-03  0.5691883E-04 -0.5321843E-07 -0.1164153E-09 -0.1495524E+03 -0.3196504E-01  0.6173338E-04 -0.8905772E-08
  0.5700001E+00  0.8658725E+03  0.2707485E+00 -0.4182781E-06 -0.3492460E-09  0.2547314E-03  0.2870976E-04  0.5228476E-07 -0.5820766E-10 -0.1495616E+03 -0.3393902E-01 -0.3743589E-04 -0.3157766E-07
  0.5800000E+00  0.8663657E+03  0.2872416E+00 -0.1027666E-06  0.4074536E-09  0.7532794E-04  0.7574563E-05 -0.5138332E-07 -0.5820766E-10 -0.1495568E+03 -0.3600241E-01  0.7810264E-05  0.5017500E-07
  0.5900000E+00  0.8669066E+03  0.3045404E+00 -0.1313323E-05 -0.1746230E-09 -0.7879937E-05  0.3607420E-05 -0.3030745E-06  0.0000000E+00 -0.1495440E+03 -0.3816733E-01  0.2783234E-04  0.4691537E-07
  0.6000000E+00  0.8673951E+03  0.3226167E+00 -0.4967054E-06  0.6402843E-09  0.1557668E-03  0.1485558E-04 -0.2980232E-06 -0.5820766E-10 -0.1496090E+03 -0.4044171E-01  0.4912416E-04 -0.7421477E-08
  0.6100000E+00  0.8679040E+03  0.3415492E+00  0.9771253E-07 -0.6402843E-09  0.8960239E-04  0.9501528E-05  0.9771253E-07 -0.1746230E-09 -0.1497162E+03 -0.4283355E-01  0.5862752E-05  0.1772423E-07
  0.6200000E+00  0.8685063E+03  0.3613319E+00 -0.1922730E-06  0.1746230E-09  0.8315809E-04  0.9938085E-05 -0.2884096E-06  0.1746230E-09 -0.1498570E+03 -0.4533761E-01  0.2922550E-04 -0.1917942E-07
  0.6300000E+00  0.8688041E+03  0.3819280E+00  0.3784422E-06  0.2328306E-09  0.1256428E-03  0.1484132E-04 -0.2838316E-06  0.0000000E+00 -0.1499382E+03 -0.4794100E-01  0.2440952E-04 -0.7683411E-08
  0.6400000E+00  0.8690441E+03  0.4034165E+00 -0.3725290E-06  0.1164153E-09  0.7422641E-04  0.7317169E-05  0.1862645E-06  0.5820766E-10 -0.1499859E+03 -0.5065203E-01  0.4102476E-04  0.1629815E-07
  0.6500000E+00  0.8693181E+03  0.4258943E+00  0.7335956E-06  0.9313226E-09  0.9811842E-05 -0.6977469E-05  0.0000000E+00 -0.1164153E-09 -0.1500375E+03 -0.5349159E-01 -0.3791773E-04  0.1356238E-07
  0.6600000E+00  0.8695942E+03  0.4493634E+00  0.2709302E-06  0.3492460E-09  0.1433221E-03  0.2069585E-04  0.0000000E+00  0.2328306E-09 -0.1500877E+03 -0.5645569E-01 -0.1062498E-03 -0.6228220E-08
  0.6700001E+00  0.8697602E+03  0.4738444E+00  0.2668864E-06  0.8149073E-09 -0.1957167E-04 -0.1167192E-04 -0.1779243E-06  0.1164153E-09 -0.1500931E+03 -0.5954336E-01  0.8033281E-04  0.8149073E-09
  0.6800001E+00  0.8699172E+03  0.4994452E+00  0.3506155E-06 -0.5820766E-09  0.5460836E-04  0.8909148E-05 -0.2629616E-06 -0.1164153E-09 -0.1501152E+03 -0.6277601E-01 -0.2253581E-03 -0.1309672E-07
  0.6900001E+00  0.8703048E+03  0.5261770E+00  0.0000000E+00  0.9313226E-09 -0.4863393E-04 -0.5682698E-05  0.2591506E-06 -0.1164153E-09 -0.1501958E+03 -0.6616120E-01 -0.3606512E-04  0.2904562E-07
  0.7000000E+00  0.8707123E+03  0.5541455E+00 -0.3405980E-06  0.1047738E-08 -0.5960464E-05  0.3689900E-05  0.0000000E+00  0.3492460E-09 -0.1502782E+03 -0.6970714E-01 -0.1260638E-03 -0.2974411E-07
  0.7100000E+00  0.8711642E+03  0.5833623E+00  0.5037012E-06 -0.1164153E-08  0.2635197E-03  0.4472036E-04  0.0000000E+00 -0.1164153E-09 -0.1503686E+03 -0.7340875E-01  0.1099328E-03 -0.5197944E-07
  0.7200000E+00  0.8716820E+03  0.6139131E+00 -0.1655685E-06 -0.5820766E-09  0.2264976E-03  0.4136073E-04 -0.2483527E-06  0.1164153E-09 -0.1504639E+03 -0.7728478E-01  0.5045699E-04 -0.6402843E-08
  0.7300000E+00  0.8724570E+03  0.6459267E+00  0.1633004E-06  0.4656613E-09  0.7168888E-04  0.5769194E-05 -0.3266008E-06 -0.1164153E-09 -0.1505682E+03 -0.8133807E-01  0.1041040E-03 -0.4429603E-07
  0.7400000E+00  0.8731974E+03  0.6789700E+00  0.4027341E-06 -0.8149073E-09 -0.1238810E-03 -0.2723711E-04  0.0000000E+00  0.3492460E-09 -0.1506302E+03 -0.8550195E-01  0.1800221E-04 -0.7566996E-09
  0.7500000E+00  0.8739527E+03  0.7134532E+00  0.4768372E-06 -0.4656613E-09  0.3814697E-05 -0.1159031E-05  0.2384186E-06  0.1164153E-09 -0.1506877E+03 -0.8985242E-01  0.2280871E-04  0.4889444E-08
  0.7600000E+00  0.8747223E+03  0.7494241E+00  0.3137087E-06  0.9313226E-09 -0.3372368E-04 -0.9609736E-05  0.1568543E-06 -0.5820766E-09 -0.1507381E+03 -0.9438942E-01  0.6960411E-04 -0.1536682E-07
  0.7700000E+00  0.8755859E+03  0.7869533E+00  0.3096345E-06  0.1164153E-08 -0.1274146E-03 -0.4328496E-04  0.7740863E-07  0.1164153E-09 -0.1508073E+03 -0.9912623E-01 -0.1018698E-03  0.3201421E-07
  0.7800000E+00  0.8764381E+03  0.8261120E+00  0.0000000E+00  0.0000000E+00  0.2559943E-04 -0.2349727E-05 -0.4584973E-06  0.0000000E+00 -0.1509353E+03 -0.1040987E+00 -0.5715933E-04  0.7334165E-08
  0.7900000E+00  0.8773474E+03  0.8669388E+00 -0.1508978E-06  0.2328306E-09 -0.1495397E-03 -0.3130385E-04 -0.7544892E-07  0.2328306E-09 -0.1510913E+03 -0.1093002E+00 -0.4123283E-04 -0.4144385E-07
  0.8000000E+00  0.8783058E+03  0.9093664E+00 -0.2235174E-06  0.9313226E-09 -0.1385808E-03 -0.2574432E-04 -0.2980232E-06  0.0000000E+00 -0.1512684E+03 -0.1147128E+00 -0.4835427E-04  0.2607703E-07
  0.8099999E+00  0.8792427E+03  0.9534587E+00  0.1471720E-06  0.4656613E-09 -0.6092920E-04 -0.1274142E-04  0.7358599E-07  0.2328306E-09 -0.1514364E+03 -0.1203279E+00 -0.6692646E-04 -0.2072193E-07
  0.8200001E+00  0.8800118E+03  0.9992164E+00  0.9449516E-06  0.1396984E-08 -0.2158851E-04 -0.1266133E-04 -0.4361315E-06 -0.4656613E-09 -0.1515637E+03 -0.1261513E+00 -0.1175738E-03  0.4679896E-07
  0.8300000E+00  0.8806247E+03  0.1046751E+01 -0.5026898E-06 -0.4656613E-09 -0.1445592E-03 -0.3154576E-04 -0.1436257E-06  0.9313226E-09 -0.1516582E+03 -0.1322002E+00 -0.8222569E-05  0.3119931E-07
  0.8400000E+00  0.8811797E+03  0.1096259E+01 -0.7095791E-06  0.2328306E-08 -0.7095791E-07 -0.3875466E-05 -0.3547896E-06  0.6984919E-09 -0.1517416E+03 -0.1385038E+00  0.2142929E-04 -0.2456363E-07
  0.8500000E+00  0.8818056E+03  0.1147774E+01  0.5609849E-06  0.0000000E+00  0.1999911E-03  0.4505762E-04  0.0000000E+00 -0.6984919E-09 -0.1518367E+03 -0.1450667E+00  0.1525178E-04 -0.2339948E-07
  0.8600000E+00  0.8823784E+03  0.1201409E+01  0.2772309E-06  0.2328306E-08  0.4241633E-04  0.6104819E-05  0.0000000E+00 -0.4656613E-09 -0.1519046E+03 -0.1518881E+00  0.7474838E-04  0.5925540E-07
  0.8700000E+00  0.8829705E+03  0.1257307E+01  0.2740443E-06 -0.1396984E-08 -0.1966268E-04  0.6807037E-05 -0.6851108E-07  0.2328306E-09 -0.1519652E+03 -0.1589966E+00  0.4436093E-04 -0.1126900E-06
  0.8800000E+00  0.8835946E+03  0.1315525E+01 -0.2709302E-06  0.0000000E+00  0.2688305E-03  0.5960511E-04 -0.4063953E-06 -0.1164153E-08 -0.1520661E+03 -0.1664283E+00  0.5225566E-04 -0.1903391E-06
  0.8900001E+00  0.8842195E+03  0.1376175E+01  0.2678860E-06  0.0000000E+00  0.2463212E-03  0.5175942E-04 -0.2009145E-06  0.0000000E+00 -0.1521709E+03 -0.1741754E+00 -0.1473373E-05 -0.4656613E-09
  0.9000000E+00  0.8848054E+03  0.1439332E+01  0.0000000E+00  0.4656613E-09 -0.2172258E-04 -0.1098728E-05  0.1324548E-06 -0.9313226E-09 -0.1522800E+03 -0.1822527E+00 -0.4847845E-04  0.3573950E-07
  0.9100001E+00  0.8854049E+03  0.1505144E+01 -0.1309992E-06 -0.1396984E-08  0.4126475E-05  0.1689699E-04  0.6549961E-07  0.1396984E-08 -0.1523905E+03 -0.1906782E+00  0.3779327E-04  0.2852175E-07
  0.9200000E+00  0.8859861E+03  0.1573786E+01 -0.1295753E-06 -0.2328306E-08 -0.2027854E-04 -0.6545568E-05  0.3239383E-06 -0.1396984E-08 -0.1524962E+03 -0.1994662E+00 -0.5468078E-04  0.4668254E-07
  0.9300001E+00  0.8866520E+03  0.1645261E+01 -0.3845460E-06  0.9313226E-09 -0.7005147E-04 -0.1831818E-04 -0.6409100E-07 -0.4656613E-09 -0.1526177E+03 -0.2086272E+00 -0.5518236E-04 -0.7380731E-07
  0.9400001E+00  0.8872169E+03  0.1719412E+01 -0.7609103E-06 -0.9313226E-09 -0.1317009E-03 -0.3158487E-04 -0.3170459E-06 -0.4656613E-09 -0.1526848E+03 -0.2180947E+00 -0.2428572E-04  0.1012813E-06
  0.9500000E+00  0.8878627E+03  0.1796152E+01 -0.3764504E-06  0.6984919E-08  0.1057826E-03  0.2599740E-04  0.3764504E-06 -0.9313226E-09 -0.1527467E+03 -0.2278512E+00 -0.7052171E-04  0.5494803E-07
  0.9600000E+00  0.8885187E+03  0.1875903E+01  0.6208817E-06  0.1396984E-08  0.1988063E-03  0.4533585E-04  0.3104409E-06  0.4656613E-09 -0.1528042E+03 -0.2380272E+00 -0.1365940E-04  0.6286427E-08
  0.9700000E+00  0.8892019E+03  0.1958943E+01  0.0000000E+00 -0.1396984E-08 -0.6083360E-04 -0.2425862E-04 -0.6144808E-07 -0.4656613E-09 -0.1528606E+03 -0.2486142E+00  0.4670054E-05 -0.9313226E-08
  0.9800000E+00  0.8898795E+03  0.2045450E+01  0.6082107E-06 -0.1396984E-08  0.1328940E-03  0.2183206E-04 -0.3041053E-06 -0.9313226E-09 -0.1529126E+03 -0.2596496E+00  0.5121134E-04 -0.9150244E-07
  0.9900000E+00  0.8906728E+03  0.2135604E+01  0.3612403E-06  0.2328306E-08  0.2583470E-03  0.7500499E-04  0.0000000E+00  0.0000000E+00 -0.1530172E+03 -0.2711915E+00 -0.5858113E-04 -0.1792796E-07
  0.1000000E+01  0.8913849E+03  0.2229480E+01  0.4768372E-06 -0.4656613E-09  0.1582503E-03  0.3474066E-04 -0.1192093E-06  0.0000000E+00 -0.1531293E+03 -0.2832573E+00  0.7474422E-04  0.7310882E-07
  0.1010000E+01  0.8921663E+03  0.2327030E+01 -0.1180290E-06 -0.9313226E-09  0.1413987E-03  0.4582247E-04 -0.2950725E-06  0.9313226E-09 -0.1532757E+03 -0.2958424E+00 -0.3169079E-04  0.1573935E-06
  0.1020000E+01  0.8930125E+03  0.2428236E+01 -0.1168719E-06  0.3259629E-08  0.1226570E-03  0.3392482E-04  0.2337437E-06 -0.1862645E-08 -0.1534387E+03 -0.3089079E+00  0.4598908E-04 -0.3934838E-06
  0.1030000E+01  0.8942626E+03  0.2533207E+01  0.2314744E-06 -0.4656613E-09  0.1413151E-03  0.3088452E-04 -0.3472115E-06 -0.1862645E-08 -0.1536538E+03 -0.3224206E+00  0.4756798E-04  0.9872019E-07
  0.1040000E+01  0.8950853E+03  0.2641736E+01  0.0000000E+00  0.4656613E-09  0.1795590E-03  0.4058983E-04 -0.5731216E-07  0.9313226E-09 -0.1537945E+03 -0.3363843E+00 -0.6023508E-04  0.1210719E-07
  0.1050000E+01  0.8959012E+03  0.2754447E+01  0.0000000E+00 -0.4656613E-09  0.1940273E-03  0.3854418E-04  0.1702990E-06  0.0000000E+00 -0.1539198E+03 -0.3508884E+00 -0.8821488E-04  0.3222376E-06
  0.1060000E+01  0.8967908E+03  0.2871763E+01 -0.5623080E-06  0.4656613E-09  0.1981573E-03  0.5143927E-04 -0.1124616E-06 -0.2793968E-08 -0.1540523E+03 -0.3660022E+00 -0.9840390E-05  0.9895302E-07
  0.1070000E+01  0.8977736E+03  0.2993906E+01 -0.6684633E-06  0.9313226E-09  0.1020521E-03  0.2566073E-04 -0.1114105E-06  0.1862645E-08 -0.1541947E+03 -0.3817373E+00  0.5230725E-04  0.1555309E-06
  0.1080000E+01  0.8989226E+03  0.3121181E+01 -0.5518949E-06  0.1862645E-08  0.2437168E-03  0.6720610E-04  0.1655685E-06  0.0000000E+00 -0.1543564E+03 -0.3981383E+00  0.8333612E-05 -0.2817251E-07
  0.1090000E+01  0.8999496E+03  0.3253429E+01  0.1093663E-06  0.3725290E-08  0.1260994E-03  0.3289012E-04 -0.2734158E-06  0.2793968E-08 -0.1544845E+03 -0.4151652E+00  0.5539404E-04 -0.2589077E-06
  0.1100000E+01  0.9009775E+03  0.3391029E+01  0.1083721E-06  0.1862645E-08  0.7987022E-04  0.2548099E-04 -0.1625581E-06 -0.1396984E-08 -0.1546090E+03 -0.4328813E+00 -0.9916045E-04  0.1797453E-06
  0.1110000E+01  0.9020377E+03  0.3534320E+01 -0.8591661E-06  0.1024455E-07  0.1612010E-03  0.4155282E-04  0.3221873E-06  0.9313226E-09 -0.1547634E+03 -0.4513849E+00 -0.8967546E-05  0.4041940E-06
  0.1120000E+01  0.9031497E+03  0.3683521E+01  0.4257475E-06  0.1396984E-07  0.2471464E-03  0.7930771E-04  0.0000000E+00 -0.9313226E-09 -0.1549367E+03 -0.4706856E+00  0.6317028E-04 -0.1741573E-06
  0.1130000E+01  0.9042751E+03  0.3838956E+01  0.8439596E-06  0.9313226E-09  0.2496011E-03  0.8404162E-04  0.0000000E+00 -0.1862645E-08 -0.1551164E+03 -0.4908175E+00  0.1993854E-04 -0.2779998E-06
  0.1140000E+01  0.9053611E+03  0.4000715E+01 -0.3137087E-06  0.3725290E-08  0.1570635E-03  0.4959479E-04 -0.2091391E-06 -0.9313226E-09 -0.1552936E+03 -0.5117843E+00 -0.3210285E-04 -0.1196750E-06
  0.1150000E+01  0.9064757E+03  0.4169302E+01 -0.4146410E-06 -0.4656613E-08  0.1908385E-03  0.6988458E-04  0.0000000E+00  0.2793968E-08 -0.1554755E+03 -0.5336463E+00  0.7567198E-04 -0.1420267E-06
  0.1160000E+01  0.9075892E+03  0.4345044E+01  0.2055333E-06  0.9313226E-09  0.9721723E-04  0.3117044E-04  0.0000000E+00  0.1862645E-08 -0.1556584E+03 -0.5564575E+00 -0.7507102E-04 -0.4097819E-07
  0.1170000E+01  0.9087338E+03  0.4528010E+01 -0.3056649E-06 -0.9313226E-09 -0.2618529E-04 -0.1183059E-04 -0.1018883E-06 -0.1862645E-08 -0.1558453E+03 -0.5802346E+00 -0.8935603E-04  0.2402812E-06
  0.1180000E+01  0.9099366E+03  0.4718081E+01 -0.1010248E-06 -0.9313226E-09  0.1668930E-03  0.6273389E-04  0.1010248E-06  0.0000000E+00 -0.1560053E+03 -0.6048325E+00 -0.4192530E-05 -0.1681037E-06
  0.1190000E+01  0.9111492E+03  0.4914686E+01  0.0000000E+00  0.9313226E-09  0.1004764E-03  0.4166644E-04  0.0000000E+00  0.2793968E-08 -0.1561469E+03 -0.6301726E+00  0.3661428E-04  0.3688037E-06
  0.1200000E+01  0.9122959E+03  0.5118594E+01  0.4967054E-06  0.9313226E-09  0.1825889E-03  0.5953014E-04  0.9934107E-07  0.0000000E+00 -0.1562763E+03 -0.6565105E+00 -0.3755093E-04  0.2281740E-06
  0.1210000E+01  0.9133941E+03  0.5330832E+01  0.9852007E-07  0.3725290E-08  0.1323125E-03  0.3552623E-04 -0.1970401E-06  0.2793968E-08 -0.1563920E+03 -0.6839472E+00  0.8866807E-06 -0.8847564E-08
  0.1220000E+01  0.9144988E+03  0.5551740E+01  0.3908501E-06 -0.6519258E-08  0.2968507E-03  0.1181364E-03 -0.2931376E-06  0.9313226E-09 -0.1565027E+03 -0.7124889E+00  0.2770150E-04 -0.2342276E-06
  0.1230000E+01  0.9156722E+03  0.5782031E+01  0.3876725E-06  0.7450581E-08  0.1520645E-03  0.6682053E-04 -0.9691812E-07 -0.1862645E-08 -0.1566193E+03 -0.7422453E+00 -0.1361700E-04  0.3222376E-06
  0.1240000E+01  0.9169463E+03  0.6022414E+01 -0.9613652E-07 -0.1862645E-08  0.3999279E-04 -0.1480523E-04  0.0000000E+00 -0.4656613E-08 -0.1568044E+03 -0.7735279E+00 -0.6455567E-04 -0.3511086E-06
  0.1250000E+01  0.9182424E+03  0.6272547E+01 -0.5722046E-06  0.1862645E-08  0.2727509E-03  0.8754991E-04  0.9536743E-07  0.2793968E-08 -0.1569950E+03 -0.8061579E+00 -0.1402855E-03 -0.7636845E-07
  0.1260000E+01  0.9196102E+03  0.6532625E+01  0.4730528E-06 -0.2235174E-07  0.1906403E-03  0.5303510E-04 -0.2838316E-06  0.1862645E-08 -0.1572230E+03 -0.8402359E+00  0.1646224E-04  0.3064051E-06
  0.1270000E+01  0.9209952E+03  0.6801880E+01 -0.1314118E-05  0.1117587E-07  0.1246535E-03  0.4052743E-04 -0.1877312E-06 -0.3725290E-08 -0.1574583E+03 -0.8755292E+00 -0.3562199E-04  0.3743917E-06
  0.1280000E+01  0.9223859E+03  0.7080007E+01  0.2793968E-06 -0.1117587E-07  0.2028421E-03  0.9727664E-04  0.9313226E-07  0.9313226E-09 -0.1576938E+03 -0.9118304E+00  0.8950010E-04 -0.2644956E-06
  0.1290000E+01  0.9235752E+03  0.7367129E+01  0.2772309E-06 -0.5587935E-08  0.2645707E-03  0.1045074E-03 -0.9241030E-07  0.0000000E+00 -0.1578915E+03 -0.9492845E+00 -0.3844269E-04 -0.6891787E-07
  0.1300000E+01  0.9247502E+03  0.7664558E+01  0.2750984E-06 -0.1303852E-07  0.4137479E-03  0.1727100E-03 -0.9169946E-07 -0.1862645E-08 -0.1580771E+03 -0.9880887E+00 -0.2471300E-04 -0.4265457E-06
  0.1310000E+01  0.9258999E+03  0.7973228E+01  0.9099946E-07  0.1676381E-07  0.2369626E-03  0.8563511E-04 -0.1819989E-06  0.0000000E+00 -0.1582507E+03 -0.1028441E+01 -0.1168433E-03 -0.1685694E-06
  0.1320000E+01  0.9270729E+03  0.8294450E+01 -0.8127906E-06  0.3725290E-08  0.3485968E-03  0.1357216E-03  0.0000000E+00  0.5587935E-08 -0.1584263E+03 -0.1070468E+01  0.4967053E-05 -0.9313226E-07
  0.1330000E+01  0.9282885E+03  0.8628348E+01 -0.3585242E-06 -0.1117587E-07  0.1676101E-03  0.7659942E-04  0.1792621E-06 -0.7450581E-08 -0.1586087E+03 -0.1114182E+01  0.1382111E-03  0.1573935E-06
  0.1340000E+01  0.9294482E+03  0.8974945E+01  0.4448108E-06  0.3725290E-08  0.4057564E-03  0.1706779E-03 -0.1779243E-06  0.0000000E+00 -0.1587833E+03 -0.1159588E+01  0.1699177E-04  0.5392358E-06
  0.1350000E+01  0.9305889E+03  0.9335795E+01  0.8830317E-07 -0.9313226E-08  0.4439001E-03  0.2033729E-03 -0.8830317E-07  0.1862645E-08 -0.1589332E+03 -0.1206778E+01 -0.1227414E-03 -0.4842877E-06
  0.1360000E+01  0.9317178E+03  0.9710743E+01 -0.2629617E-06  0.7450581E-08  0.5430158E-03  0.2553500E-03 -0.4382694E-06 -0.3725290E-08 -0.1590779E+03 -0.1255830E+01  0.4742076E-04 -0.2365559E-06
  0.1370000E+01  0.9328972E+03  0.1010094E+02  0.4350704E-06  0.5587935E-08  0.4756190E-03  0.2141614E-03 -0.2610422E-06  0.5587935E-08 -0.1592570E+03 -0.1307049E+01  0.5112077E-04  0.4777685E-06
  0.1380000E+01  0.9341531E+03  0.1050708E+02  0.7774519E-06  0.7450581E-08  0.3975371E-03  0.2012663E-03  0.0000000E+00  0.5587935E-08 -0.1594629E+03 -0.1360475E+01  0.1243923E-04 -0.5401671E-07
  0.1390000E+01  0.9353773E+03  0.1092962E+02 -0.8576208E-07  0.3725290E-08  0.2864453E-03  0.1634173E-03 -0.4288104E-06 -0.1862645E-08 -0.1596644E+03 -0.1416097E+01 -0.7088236E-04  0.9182841E-06
  0.1400000E+01  0.9366307E+03  0.1136919E+02  0.5960464E-06 -0.3725290E-08  0.2874647E-03  0.1914203E-03  0.0000000E+00  0.1117587E-07 -0.1598733E+03 -0.1474020E+01  0.2282006E-04 -0.1983717E-06
  0.1410000E+01  0.9378750E+03  0.1182730E+02  0.5918192E-06 -0.3725290E-08  0.7296285E-04  0.5903840E-04  0.5072736E-06  0.9313226E-08 -0.1600814E+03 -0.1534431E+01 -0.2891459E-04 -0.6603077E-06
  0.1420000E+01  0.9390959E+03  0.1230326E+02 -0.9234523E-06  0.3725290E-08  0.1840188E-03  0.1604799E-03  0.4197510E-06  0.3725290E-08 -0.1602855E+03 -0.1597232E+01  0.7547124E-04 -0.4107133E-06
  0.1430000E+01  0.9403633E+03  0.1279972E+02  0.5001788E-06 -0.7450581E-08 -0.1489699E-03 -0.8555129E-05  0.1667263E-06 -0.1862645E-08 -0.1604979E+03 -0.1662787E+01  0.9257477E-04  0.3632158E-07
  0.1440000E+01  0.9418290E+03  0.1331705E+02  0.2483527E-06  0.7450581E-08 -0.2427234E-03 -0.6327778E-04 -0.3311369E-06  0.0000000E+00 -0.1607339E+03 -0.1731137E+01 -0.1114690E-03 -0.8810312E-06
  0.1450000E+01  0.9432813E+03  0.1385291E+02  0.7399197E-06 -0.4842877E-07 -0.1183872E-04  0.8291006E-04  0.0000000E+00 -0.1862645E-08 -0.1609152E+03 -0.1801462E+01 -0.1796361E-04 -0.7208437E-06
  0.1460000E+01  0.9447363E+03  0.1440872E+02 -0.2449506E-06 -0.7450581E-08  0.9667383E-04  0.1845360E-03 -0.2449506E-06 -0.3725290E-08 -0.1610912E+03 -0.1874339E+01  0.6282983E-04 -0.8009374E-07
  0.1470000E+01  0.9462930E+03  0.1498698E+02 -0.8109475E-06 -0.7450581E-08  0.3019158E-03  0.3546998E-03 -0.1621895E-06 -0.3725290E-08 -0.1612778E+03 -0.1950335E+01  0.1305625E-04 -0.2067536E-06
  0.1480000E+01  0.9478995E+03  0.1558883E+02 -0.5638277E-06  0.1117587E-07  0.3410352E-03  0.4189648E-03 -0.4027341E-06  0.3725290E-08 -0.1614615E+03 -0.2029402E+01  0.7792904E-04 -0.1974404E-06
  0.1490000E+01  0.9496263E+03  0.1621614E+02  0.0000000E+00 -0.7450581E-08  0.5042793E-03  0.5397052E-03  0.8000623E-07 -0.1490116E-07 -0.1616542E+03 -0.2111757E+01  0.6620516E-04 -0.2682209E-06
  0.1500000E+01  0.9515471E+03  0.1687201E+02  0.1589457E-06  0.1862645E-07  0.6804466E-03  0.6706156E-03  0.1589457E-06  0.3725290E-08 -0.1618657E+03 -0.2197809E+01 -0.2125899E-04 -0.2849847E-06
  0.1510000E+01  0.9535009E+03  0.1755533E+02 -0.9473586E-06 -0.7450581E-08  0.6535985E-03  0.6148554E-03 -0.7894655E-07  0.1117587E-07 -0.1621381E+03 -0.2288128E+01 -0.6118358E-05 -0.9406358E-06
  0.1520000E+01  0.9554901E+03  0.1826697E+02 -0.7842717E-06  0.1117587E-07  0.8605029E-03  0.7477961E-03  0.7842716E-07 -0.1117587E-07 -0.1624274E+03 -0.2382565E+01  0.1894016E-04  0.1648441E-05
  0.1530000E+01  0.9575508E+03  0.1900671E+02 -0.4674874E-06 -0.1490116E-07  0.7878721E-03  0.7024817E-03  0.0000000E+00  0.0000000E+00 -0.1627496E+03 -0.2481189E+01 -0.1174952E-03 -0.6742775E-06
  0.1540000E+01  0.9596533E+03  0.1977159E+02  0.0000000E+00  0.2235174E-07  0.8720082E-03  0.7726140E-03 -0.7740863E-07  0.0000000E+00 -0.1630889E+03 -0.2583415E+01 -0.7849235E-04  0.8307397E-06
  0.1550000E+01  0.9618486E+03  0.2056119E+02 -0.1076729E-05 -0.1490116E-07  0.9312938E-03  0.7832162E-03  0.4614553E-06  0.4097819E-07 -0.1634451E+03 -0.2688326E+01 -0.9421379E-05 -0.1857057E-05
  0.1560000E+01  0.9638612E+03  0.2137356E+02  0.6113297E-06  0.0000000E+00  0.8003070E-03  0.6930158E-03 -0.7641621E-07  0.7450581E-08 -0.1637654E+03 -0.2796077E+01  0.2391828E-04  0.4880130E-06
  0.1570000E+01  0.9657949E+03  0.2221223E+02  0.1063013E-05 -0.3725290E-08  0.7573966E-03  0.6430261E-03 -0.7592948E-07  0.1117587E-07 -0.1640672E+03 -0.2907402E+01  0.9126723E-04 -0.1352280E-05
  0.1580000E+01  0.9677090E+03  0.2308187E+02 -0.1508978E-06 -0.4470348E-07  0.6208691E-03  0.5575046E-03 -0.1508978E-06  0.3725290E-08 -0.1643525E+03 -0.3022947E+01  0.7529802E-04  0.4842877E-07
  0.1590000E+01  0.9694797E+03  0.2398309E+02  0.0000000E+00 -0.1490116E-07  0.3253139E-03  0.2793781E-03  0.1499488E-06  0.2235174E-07 -0.1646153E+03 -0.3142979E+01 -0.2924001E-04  0.1002103E-05
  0.1600000E+01  0.9714135E+03  0.2491925E+02  0.8940697E-06 -0.3725290E-07  0.1505762E-03  0.1368448E-03  0.2235174E-06  0.1117587E-07 -0.1649012E+03 -0.3267786E+01  0.5029142E-04  0.8177012E-06
  0.1610000E+01  0.9735778E+03  0.2589088E+02 -0.7404304E-06  0.2235174E-07 -0.1614138E-04 -0.3517792E-04 -0.2221291E-06 -0.1117587E-07 -0.1652209E+03 -0.3397425E+01  0.1055854E-03 -0.2384186E-06
  0.1620000E+01  0.9756426E+03  0.2690043E+02  0.4415159E-06  0.7450581E-08 -0.3791886E-03 -0.3164932E-03  0.0000000E+00 -0.2235174E-07 -0.1655159E+03 -0.3532045E+01 -0.4459310E-04  0.2276152E-05
  0.1630000E+01  0.9775934E+03  0.2794695E+02 -0.5850763E-06  0.0000000E+00 -0.4999477E-03 -0.4879162E-03  0.0000000E+00 -0.2235174E-07 -0.1657767E+03 -0.3671413E+01 -0.2237917E-04 -0.1795590E-05
  0.1640000E+01  0.9794456E+03  0.2903118E+02 -0.4361316E-06  0.2980232E-07 -0.8224714E-03 -0.7231310E-03 -0.1453772E-06 -0.1117587E-07 -0.1660222E+03 -0.3815876E+01 -0.4819254E-04  0.4097819E-06
  0.1650000E+01  0.9813219E+03  0.3015750E+02 -0.1444961E-06  0.5960464E-07 -0.9525184E-03 -0.8422136E-03 -0.2889922E-06  0.1490116E-07 -0.1663051E+03 -0.3966576E+01 -0.1401612E-04  0.4470348E-06