VARIABLES="w (rad/s)"
"abs(F   1   1)" "angle(F   1   1)"
"abs(F   1   2)" "angle(F   1   2)"
"abs(F   1   3)" "angle(F   1   3)"
"abs(F   1   4)" "angle(F   1   4)"
"abs(F   1   5)" "angle(F   1   5)"
"abs(F   1   6)" "angle(F   1   6)"
Zone t="Diffraction force - beta =   0.000 deg",I=  2986,F=POINT
  0.1500000E+00  0.1637628E+03 -0.1570764E+01  0.6612574E-06 -0.9859187E+00  0.2963480E+02 -0.3007216E+01  0.2290760E-05 -0.1501765E+00  0.2832812E+02  0.1570819E+01  0.1355316E-04  0.1561726E+01
  0.1600000E+00  0.1750169E+03 -0.1570760E+01  0.4628964E-06 -0.2562518E+01  0.3344879E+02 -0.3006158E+01  0.1918318E-05 -0.2841952E+01  0.3030560E+02  0.1570823E+01  0.1194192E-05 -0.1630102E+01
  0.1700000E+00  0.1855917E+03 -0.1570755E+01  0.5633447E-06  0.3510309E+00  0.3753429E+02 -0.3005255E+01  0.1529621E-05  0.3479387E+00  0.3215033E+02  0.1570826E+01  0.4069354E-05  0.1545161E+01
  0.1800000E+00  0.1961225E+03 -0.1570750E+01  0.1107608E-05 -0.3430239E+00  0.4193352E+02 -0.3004606E+01  0.1499104E-05  0.1095595E+00  0.3403992E+02  0.1570830E+01  0.1280027E-04  0.1565558E+01
  0.1900000E+00  0.2074426E+03 -0.1570744E+01  0.5855227E-06  0.2573237E+00  0.4646661E+02 -0.3003810E+01  0.5092623E-06  0.1212026E+01  0.3594621E+02  0.1570834E+01  0.1464907E-04 -0.1557827E+01
  0.2000000E+00  0.2191899E+03 -0.1570739E+01  0.3877167E-06  0.1609239E+01  0.5127258E+02 -0.3003124E+01  0.4395843E-05  0.0000000E+00  0.3795455E+02  0.1570838E+01  0.1078848E-04 -0.1568034E+01
  0.2100000E+00  0.2305769E+03 -0.1570733E+01  0.6933445E-06 -0.2649107E+01  0.5625106E+02 -0.3002336E+01  0.4002009E-05  0.3033402E+01  0.3996133E+02  0.1570842E+01  0.1089315E-04 -0.1562247E+01
  0.2200000E+00  0.2417566E+03 -0.1570726E+01  0.1054751E-05  0.1421906E+01  0.6146965E+02 -0.3001615E+01  0.8286668E-05 -0.1978159E-01  0.4188461E+02  0.1570847E+01  0.5427094E-05  0.1537155E+01
  0.2300000E+00  0.2526787E+03 -0.1570720E+01  0.1627777E-05 -0.2938811E+01  0.6695014E+02 -0.3000999E+01  0.3722428E-05 -0.3021210E+01  0.4378333E+02  0.1570851E+01  0.1166200E-06  0.2034444E+01
  0.2400000E+00  0.2638345E+03 -0.1570713E+01  0.6531062E-06  0.4738513E+00  0.7269734E+02 -0.3000483E+01  0.7036015E-05 -0.3114057E+01  0.4573064E+02  0.1570857E+01  0.8116210E-05  0.1620388E+01
  0.2500000E+00  0.2748210E+03 -0.1570705E+01  0.9104353E-06  0.3683489E+00  0.7860557E+02 -0.2999839E+01  0.2947456E-05  0.2779863E+01  0.4759900E+02  0.1570862E+01  0.1175874E-04  0.1587905E+01
  0.2600000E+00  0.2858171E+03 -0.1570697E+01  0.1710196E-05  0.2748142E+01  0.8472815E+02 -0.2999209E+01  0.1074374E-04 -0.3141592E+01  0.4946906E+02  0.1570868E+01  0.1173437E-04 -0.1605725E+01
  0.2700000E+00  0.2970641E+03 -0.1570689E+01  0.9281880E-06 -0.2310771E+01  0.9110214E+02 -0.2998642E+01  0.1104663E-04  0.2968089E-01  0.5146523E+02  0.1570873E+01  0.5514336E-05 -0.1646532E+01
  0.2800000E+00  0.3080555E+03 -0.1570681E+01  0.1732961E-05  0.4828760E+00  0.9761913E+02 -0.2997974E+01  0.6171672E-05  0.2897739E-01  0.5340657E+02  0.1570879E+01  0.3536054E-04 -0.1568689E+01
  0.2900000E+00  0.3191510E+03 -0.1570672E+01  0.1589613E-05  0.1127276E+00  0.1043829E+03 -0.2997356E+01  0.1079161E-04  0.3033680E+01  0.5534031E+02  0.1570886E+01  0.1307301E-04  0.1544007E+01
  0.3000000E+00  0.3303513E+03 -0.1570663E+01  0.1733922E-05 -0.1068706E+01  0.1113869E+03 -0.2996779E+01  0.9486927E-05 -0.2958367E+01  0.5727453E+02  0.1570892E+01  0.6422440E-05 -0.1574277E+01
  0.3100000E+00  0.3418112E+03 -0.1570654E+01  0.3445521E-05 -0.2843094E+01  0.1186515E+03 -0.2996255E+01  0.6437991E-05  0.3044227E+01  0.5927579E+02  0.1570899E+01  0.4971296E-05 -0.1423388E+01
  0.3200000E+00  0.3531959E+03 -0.1570644E+01  0.4303212E-05  0.1389588E+00  0.1261806E+03 -0.2995782E+01  0.7003800E-05  0.8510434E-02  0.6127369E+02  0.1570906E+01  0.3837143E-04 -0.1563806E+01
  0.3300000E+00  0.3646286E+03 -0.1570634E+01  0.1264405E-05  0.1428899E+01  0.1338191E+03 -0.2995187E+01  0.9697485E-05 -0.4919105E-01  0.6321352E+02  0.1570914E+01  0.4506370E-05 -0.1399668E+01
  0.3400000E+00  0.3760585E+03 -0.1570623E+01  0.2127477E-05  0.2944197E+01  0.1416819E+03 -0.2994598E+01  0.1464071E-04  0.3109018E+01  0.6513548E+02  0.1570921E+01  0.2186204E-04  0.1557164E+01
  0.3500000E+00  0.3877268E+03 -0.1570612E+01  0.5475603E-05 -0.3269140E+00  0.1497948E+03 -0.2994060E+01  0.1663570E-04 -0.2687525E-01  0.6714821E+02  0.1570929E+01  0.1936979E-05 -0.1875517E+01
  0.3600000E+00  0.3992899E+03 -0.1570601E+01  0.2752160E-05 -0.2833540E+01  0.1581015E+03 -0.2993500E+01  0.1675657E-04  0.3111353E+01  0.6918664E+02  0.1570937E+01  0.2473920E-04 -0.1554533E+01
  0.3700000E+00  0.4109164E+03 -0.1570589E+01  0.8349970E-06 -0.6078020E+00  0.1665201E+03 -0.2992869E+01  0.5223829E-05  0.2852322E+01  0.7120052E+02  0.1570946E+01  0.2761572E-04  0.1587524E+01
  0.3800000E+00  0.4224774E+03 -0.1570576E+01  0.2406618E-05 -0.1434153E+01  0.1752113E+03 -0.2992289E+01  0.2137009E-04  0.5441550E-01  0.7319127E+02  0.1570955E+01  0.3177443E-05 -0.1745197E+01
  0.3900000E+00  0.4337886E+03 -0.1570564E+01  0.3874302E-06  0.1965587E+01  0.1840998E+03 -0.2991699E+01  0.1016683E-04 -0.1559923E+00  0.7514616E+02  0.1570964E+01  0.4224289E-05 -0.1673273E+01
  0.4000000E+00  0.4450964E+03 -0.1570550E+01  0.5323616E-05 -0.2567564E+01  0.1932729E+03 -0.2991164E+01  0.1257785E-04  0.3127376E+01  0.7712985E+02  0.1570974E+01  0.2272159E-04 -0.1538000E+01
  0.4100000E+00  0.4563663E+03 -0.1570537E+01  0.3713948E-05  0.2515746E+01  0.2027564E+03 -0.2990698E+01  0.6371009E-06 -0.1382575E+01  0.7912661E+02  0.1570983E+01  0.7082583E-05 -0.1535022E+01
  0.4200000E+00  0.4676674E+03 -0.1570523E+01  0.3164103E-05  0.3085049E+01  0.2123655E+03 -0.2990153E+01  0.3874302E-05  0.2892883E+01  0.8113274E+02  0.1570994E+01  0.1619954E-04 -0.1555158E+01
  0.4300000E+00  0.4789908E+03 -0.1570508E+01  0.3077009E-05 -0.2342497E+01  0.2222345E+03 -0.2989631E+01  0.1697676E-04 -0.3000689E+01  0.8310857E+02  0.1571004E+01  0.3354913E-05 -0.1432668E+01
  0.4400000E+00  0.4903102E+03 -0.1570493E+01  0.7820995E-05 -0.2903083E+01  0.2322680E+03 -0.2989062E+01  0.2141831E-05 -0.1013672E+01  0.8505205E+02  0.1571015E+01  0.4835421E-06 -0.5880026E+00
  0.4500000E+00  0.5018177E+03 -0.1570477E+01  0.2242315E-05  0.2731465E+01  0.2424425E+03 -0.2988479E+01  0.1712988E-04 -0.1291025E+00  0.8701078E+02  0.1571026E+01  0.1469282E-04 -0.1576881E+01
  0.4600000E+00  0.5135253E+03 -0.1570461E+01  0.3862937E-05  0.1183127E+01  0.2529147E+03 -0.2987946E+01  0.6861786E-05 -0.2572865E+01  0.8905051E+02  0.1571038E+01  0.1903749E-04 -0.1461781E+01
  0.4700000E+00  0.5254893E+03 -0.1570445E+01  0.1391484E-05 -0.2969402E+01  0.2636393E+03 -0.2987429E+01  0.4338567E-05  0.2448613E+01  0.9116359E+02  0.1571050E+01  0.2149380E-04 -0.1595063E+01
  0.4800000E+00  0.5375848E+03 -0.1570428E+01  0.3304700E-05 -0.1265921E+00  0.2743506E+03 -0.2986805E+01  0.2765039E-05  0.1700499E+01  0.9328529E+02  0.1571062E+01  0.1391316E-04  0.1659808E+01
  0.4900000E+00  0.5495251E+03 -0.1570410E+01  0.1522487E-04 -0.3035691E+01  0.2853802E+03 -0.2986238E+01  0.1720379E-04 -0.1793887E+00  0.9536591E+02  0.1571075E+01  0.1515509E-04  0.1525552E+01
  0.5000000E+00  0.5615259E+03 -0.1570392E+01  0.2198919E-05  0.2568626E+01  0.2966118E+03 -0.2985664E+01  0.2728013E-04 -0.1083650E+00  0.9745177E+02  0.1571088E+01  0.6973807E-05 -0.1575070E+01
  0.5100000E+00  0.5735164E+03 -0.1570374E+01  0.4000622E-05  0.2154667E+01  0.3080586E+03 -0.2985087E+01  0.3498442E-05  0.1329950E+01  0.9952685E+02  0.1571101E+01  0.1312656E-05  0.2452668E+01
  0.5200000E+00  0.5855020E+03 -0.1570355E+01  0.2923059E-05 -0.2852089E+01  0.3197232E+03 -0.2984507E+01  0.5900559E-05 -0.2356194E+01  0.1016023E+03  0.1571115E+01  0.2860607E-04 -0.1660513E+01
  0.5300000E+00  0.5976055E+03 -0.1570335E+01  0.4641897E-05 -0.4234394E+00  0.3315653E+03 -0.2983901E+01  0.8306459E-05 -0.7181871E-01  0.1037238E+03  0.1571129E+01  0.2747257E-04 -0.1507836E+01
  0.5400000E+00  0.6097543E+03 -0.1570314E+01  0.4193135E-05 -0.1471128E+01  0.3438293E+03 -0.2983392E+01  0.3214129E-04  0.3016088E+01  0.1058553E+03  0.1571144E+01  0.5967051E-04 -0.1585281E+01
  0.5500000E+00  0.6218184E+03 -0.1570293E+01  0.1275094E-04  0.2359086E+00  0.3561487E+03 -0.2982793E+01  0.4322570E-04 -0.3033829E+01  0.1079785E+03  0.1571159E+01  0.2637507E-04  0.1569666E+01
  0.5600000E+00  0.6338906E+03 -0.1570271E+01  0.1248529E-04  0.3074707E+01  0.3688531E+03 -0.2982256E+01  0.2287524E-04  0.3077711E+01  0.1100888E+03  0.1571175E+01  0.3057742E-04  0.1574695E+01
  0.5700001E+00  0.6461124E+03 -0.1570249E+01  0.3372801E-05 -0.2331200E+01  0.3815942E+03 -0.2981613E+01  0.7414252E-05 -0.2002081E+01  0.1121750E+03  0.1571192E+01  0.2700153E-04  0.1618274E+01
  0.5800000E+00  0.6583845E+03 -0.1570226E+01  0.5332867E-05 -0.2652950E+01  0.3945058E+03 -0.2980973E+01  0.1711621E-04  0.2993047E+01  0.1142572E+03  0.1571208E+01  0.2363595E-04  0.1555665E+01
  0.5900000E+00  0.6707388E+03 -0.1570202E+01  0.9508389E-05  0.3003242E+01  0.4076145E+03 -0.2980353E+01  0.1053102E-04 -0.8784155E-01  0.1163395E+03  0.1571226E+01  0.1782537E-04 -0.1590860E+01
  0.6000000E+00  0.6830977E+03 -0.1570178E+01  0.8682865E-05 -0.9625337E-01  0.4210027E+03 -0.2979756E+01  0.4887672E-05  0.6097485E-02  0.1184895E+03  0.1571243E+01  0.2753749E-04  0.1567550E+01
  0.6100000E+00  0.6955186E+03 -0.1570153E+01  0.4961527E-05  0.2799498E+00  0.4346697E+03 -0.2979167E+01  0.4141236E-04  0.4751464E-01  0.1206821E+03  0.1571261E+01  0.5068322E-05 -0.1682752E+01
  0.6200000E+00  0.7080635E+03 -0.1570127E+01  0.6281436E-05 -0.8550529E-01  0.4484374E+03 -0.2978555E+01  0.2558984E-04  0.2088158E+00  0.1229124E+03  0.1571280E+01  0.3272300E-04  0.1568975E+01
  0.6300000E+00  0.7204044E+03 -0.1570100E+01  0.7000184E-05  0.6707516E+00  0.4622541E+03 -0.2977907E+01  0.1054514E-04 -0.2959717E+01  0.1251035E+03  0.1571299E+01  0.6236140E-04  0.1512938E+01
  0.6400000E+00  0.7327382E+03 -0.1570073E+01  0.1635298E-04  0.5105049E-01  0.4763911E+03 -0.2977290E+01  0.8125984E-05  0.3071853E+01  0.1272758E+03  0.1571319E+01  0.5023036E-04  0.1593938E+01
  0.6500000E+00  0.7451434E+03 -0.1570045E+01  0.7226187E-05  0.4894721E+00  0.4904881E+03 -0.2976578E+01  0.2139964E-04  0.2247112E+00  0.1294603E+03  0.1571340E+01  0.3376092E-04 -0.1721432E+01
  0.6600000E+00  0.7575941E+03 -0.1570016E+01  0.6201748E-05  0.1328149E+01  0.5049946E+03 -0.2975929E+01  0.4605646E-04  0.1953651E+00  0.1316523E+03  0.1571361E+01  0.5021978E-04  0.1560114E+01
  0.6700001E+00  0.7699912E+03 -0.1569986E+01  0.2457562E-06 -0.2896614E+01  0.5200294E+03 -0.2975380E+01  0.1430813E-04  0.2153022E+01  0.1338139E+03  0.1571383E+01  0.1961573E-04  0.1546485E+01
  0.6800001E+00  0.7824207E+03 -0.1569955E+01  0.7463682E-05  0.1107149E+01  0.5349944E+03 -0.2974723E+01  0.1139716E-04 -0.3028914E+01  0.1359982E+03  0.1571405E+01  0.8847650E-04  0.1593703E+01
  0.6900001E+00  0.7951050E+03 -0.1569923E+01  0.1643457E-04  0.3068993E+01  0.5502042E+03 -0.2974066E+01  0.3709042E-04 -0.2683662E+00  0.1382453E+03  0.1571428E+01  0.2745608E-04  0.1832098E+01
  0.7000000E+00  0.8078572E+03 -0.1569890E+01  0.1420505E-04 -0.4054427E+00  0.5656548E+03 -0.2973404E+01  0.1470101E-04 -0.1283029E+01  0.1405044E+03  0.1571452E+01  0.3353059E-04  0.1584129E+01
  0.7100000E+00  0.8207021E+03 -0.1569856E+01  0.1231611E-04  0.2690931E+01  0.5813523E+03 -0.2972735E+01  0.7564993E-04  0.7097065E-01  0.1427819E+03  0.1571476E+01  0.4861291E-04  0.1532778E+01
  0.7200000E+00  0.8336638E+03 -0.1569821E+01  0.8171925E-05 -0.2928462E+01  0.5973017E+03 -0.2972062E+01  0.1928724E-04 -0.9905364E-01  0.1450752E+03  0.1571502E+01  0.7026534E-04  0.1546194E+01
  0.7300000E+00  0.8469314E+03 -0.1569786E+01  0.2643014E-04 -0.1243550E+00  0.6134072E+03 -0.2971348E+01  0.2660077E-04 -0.3585906E-01  0.1473881E+03  0.1571528E+01  0.3926766E-04 -0.1521444E+01
  0.7400000E+00  0.8602311E+03 -0.1569749E+01  0.1326227E-04 -0.6129351E+00  0.6296261E+03 -0.2970573E+01  0.5569489E-04 -0.3069828E+01  0.1496704E+03  0.1571554E+01  0.2324361E-04 -0.1619538E+01
  0.7500000E+00  0.8736082E+03 -0.1569712E+01  0.1613735E-05 -0.1644735E+01  0.6460694E+03 -0.2969788E+01  0.3470179E-04  0.1874582E+00  0.1519589E+03  0.1571581E+01  0.6155153E-04  0.1618264E+01
  0.7600000E+00  0.8870634E+03 -0.1569673E+01  0.1739322E-04 -0.2489867E+01  0.6626397E+03 -0.2969058E+01  0.1863367E-04 -0.2935414E+01  0.1542503E+03  0.1571610E+01  0.7751128E-04  0.1533107E+01
  0.7700000E+00  0.9006847E+03 -0.1569633E+01  0.1961537E-04  0.1371700E+00  0.6794470E+03 -0.2968323E+01  0.8858584E-04 -0.2993701E+01  0.1565722E+03  0.1571639E+01  0.6810819E-04  0.1496340E+01
  0.7800000E+00  0.9143629E+03 -0.1569593E+01  0.1371373E-04  0.3115512E+01  0.6965370E+03 -0.2967590E+01  0.4534618E-04 -0.4536359E-01  0.1589669E+03  0.1571669E+01  0.6400246E-04  0.1532604E+01
  0.7900000E+00  0.9281750E+03 -0.1569551E+01  0.1719261E-05  0.5880026E+00  0.7139246E+03 -0.2966853E+01  0.3208968E-04 -0.3014012E+01  0.1614055E+03  0.1571700E+01  0.7096020E-05  0.1146602E+01
  0.8000000E+00  0.9421136E+03 -0.1569507E+01  0.5536819E-05  0.2502005E+00  0.7314657E+03 -0.2966111E+01  0.7283983E-04  0.3132591E+01  0.1638812E+03  0.1571731E+01  0.2637100E-04 -0.1695432E+01
  0.8099999E+00  0.9561051E+03 -0.1569463E+01  0.3171774E-04 -0.3119040E+01  0.7488624E+03 -0.2965359E+01  0.3531780E-04 -0.2367922E+00  0.1663623E+03  0.1571763E+01  0.1010738E-04 -0.1600286E+01
  0.8200001E+00  0.9699860E+03 -0.1569418E+01  0.1825936E-04 -0.2677945E+01  0.7665051E+03 -0.2964600E+01  0.8494735E-04  0.3028030E+01  0.1688131E+03  0.1571796E+01  0.8561626E-04  0.1594469E+01
  0.8300000E+00  0.9837646E+03 -0.1569371E+01  0.2274064E-04  0.2694356E+01  0.7844163E+03 -0.2963842E+01  0.1440538E-04 -0.2240368E+01  0.1712411E+03  0.1571831E+01  0.1910366E-04  0.1577036E+01
  0.8400000E+00  0.9975446E+03 -0.1569322E+01  0.7486495E-05  0.1730709E+01  0.8026757E+03 -0.2963105E+01  0.7741723E-04 -0.1293208E+00  0.1736698E+03  0.1571866E+01  0.1986259E-04  0.1739645E+01
  0.8500000E+00  0.1011474E+04 -0.1569272E+01  0.3457069E-05  0.0000000E+00  0.8207476E+03 -0.2962265E+01  0.4941388E-04  0.5961992E+00  0.1761252E+03  0.1571903E+01  0.1585374E-04  0.1510605E+01
  0.8600000E+00  0.1025415E+04 -0.1569221E+01  0.7355561E-05  0.6532253E+00  0.8394244E+03 -0.2961504E+01  0.4063800E-04 -0.2888076E+01  0.1785631E+03  0.1571940E+01  0.9105694E-04 -0.1640238E+01
  0.8700000E+00  0.1039445E+04 -0.1569168E+01  0.3405820E-05  0.2568152E+01  0.8580230E+03 -0.2960668E+01  0.2678896E-04  0.2862071E+01  0.1810048E+03  0.1571979E+01  0.5957914E-04 -0.1582802E+01
  0.8800000E+00  0.1053588E+04 -0.1569113E+01  0.7696158E-05 -0.1288241E+01  0.8769420E+03 -0.2959841E+01  0.4164283E-04  0.2638248E+01  0.1835086E+03  0.1572019E+01  0.2341014E-04 -0.1794160E+01
  0.8900001E+00  0.1067808E+04 -0.1569057E+01  0.1567647E-04  0.3054031E+01  0.8961192E+03 -0.2959007E+01  0.4194952E-04 -0.1039101E+00  0.1860324E+03  0.1572060E+01  0.4738419E-04  0.1500295E+01
  0.9000000E+00  0.1082052E+04 -0.1568998E+01  0.6633277E-05 -0.2426144E+01  0.9157256E+03 -0.2958201E+01  0.1302385E-04  0.1985303E+01  0.1885758E+03  0.1572103E+01  0.5082428E-04 -0.1591908E+01
  0.9100001E+00  0.1096388E+04 -0.1568938E+01  0.2313797E-04  0.2870370E+01  0.9354330E+03 -0.2957349E+01  0.6732150E-04 -0.2582926E+00  0.1911366E+03  0.1572147E+01  0.4649044E-04 -0.1683860E+01
  0.9200000E+00  0.1110775E+04 -0.1568876E+01  0.1046142E-04  0.3010171E+01  0.9555967E+03 -0.2956527E+01  0.3070399E-04 -0.2073087E+01  0.1937066E+03  0.1572192E+01  0.2127646E-04  0.1161674E+01
  0.9300001E+00  0.1125349E+04 -0.1568812E+01  0.4475749E-04  0.3053585E+01  0.9756604E+03 -0.2955613E+01  0.4859241E-05  0.3702562E+00  0.1963130E+03  0.1572239E+01  0.1700627E-04 -0.1430138E+01
  0.9400001E+00  0.1139872E+04 -0.1568746E+01  0.1924039E-04  0.2496852E+01  0.9959159E+03 -0.2954665E+01  0.4536380E-04  0.3088354E+01  0.1988632E+03  0.1572287E+01  0.6089848E-04  0.1607998E+01
  0.9500000E+00  0.1154579E+04 -0.1568679E+01  0.1509069E-05  0.1729452E+01  0.1016292E+04 -0.2953642E+01  0.1266160E-03  0.3125822E+01  0.2014209E+03  0.1572336E+01  0.7269248E-04 -0.1725565E+01
  0.9600000E+00  0.1169380E+04 -0.1568610E+01  0.2502061E-04  0.2866565E+01  0.1036821E+04 -0.2952593E+01  0.5969834E-04 -0.1055302E+00  0.2039869E+03  0.1572387E+01  0.5276469E-04 -0.1499569E+01
  0.9700000E+00  0.1184303E+04 -0.1568539E+01  0.2574789E-04  0.2550850E+00  0.1057533E+04 -0.2951653E+01  0.1441702E-03  0.2052605E+00  0.2065662E+03  0.1572439E+01  0.1168684E-03 -0.1672977E+01
  0.9800000E+00  0.1199302E+04 -0.1568465E+01  0.2324826E-04 -0.2997520E+01  0.1078356E+04 -0.2950673E+01  0.5384580E-05  0.1112099E+01  0.2091545E+03  0.1572493E+01  0.1421587E-03  0.1600150E+01
  0.9900000E+00  0.1214547E+04 -0.1568390E+01  0.6084347E-05  0.1531601E+01  0.1099572E+04 -0.2949708E+01  0.1497785E-04  0.1828323E+01  0.2118306E+03  0.1572549E+01  0.3633293E-04  0.1757253E+01
  0.1000000E+01  0.1229770E+04 -0.1568311E+01  0.2598462E-04 -0.5396327E+00  0.1121095E+04 -0.2948724E+01  0.8029205E-04 -0.6760515E-01  0.2145341E+03  0.1572606E+01  0.4068231E-04 -0.1581052E+01
  0.1010000E+01  0.1245183E+04 -0.1568231E+01  0.1792584E-04 -0.1812549E+01  0.1142949E+04 -0.2947720E+01  0.3912409E-04  0.1203021E+01  0.2173042E+03  0.1572665E+01  0.2019735E-03 -0.1565189E+01
  0.1020000E+01  0.1260784E+04 -0.1568148E+01  0.1477907E-04  0.2195438E+00  0.1164839E+04 -0.2946723E+01  0.1550892E-03  0.8754571E-01  0.2201172E+03  0.1572726E+01  0.1555102E-04 -0.1409113E+01
  0.1030000E+01  0.1277062E+04 -0.1568065E+01  0.3500473E-05 -0.8215270E+00  0.1186404E+04 -0.2945797E+01  0.4109213E-04  0.6614884E+00  0.2230245E+03  0.1572787E+01  0.9916100E-04 -0.1557572E+01
  0.1040000E+01  0.1292827E+04 -0.1567978E+01  0.2294895E-04 -0.2570879E+01  0.1208204E+04 -0.2944835E+01  0.1535329E-03  0.3063481E+01  0.2258445E+03  0.1572851E+01  0.7483824E-04  0.1529369E+01
  0.1050000E+01  0.1308682E+04 -0.1567889E+01  0.1055322E-04  0.7294566E+00  0.1230229E+04 -0.2943855E+01  0.1819837E-03 -0.3023738E+01  0.2286619E+03  0.1572916E+01  0.9920190E-06  0.5713375E+00
  0.1060000E+01  0.1324746E+04 -0.1567797E+01  0.5239584E-04 -0.1853479E+00  0.1252469E+04 -0.2942859E+01  0.2978839E-04 -0.2682419E+01  0.2315093E+03  0.1572984E+01  0.4237068E-05 -0.8102686E+00
  0.1070000E+01  0.1341054E+04 -0.1567702E+01  0.1499113E-04 -0.2449787E+00  0.1274991E+04 -0.2941864E+01  0.2048235E-04 -0.3396962E+00  0.2343911E+03  0.1573054E+01  0.1201268E-03 -0.1541021E+01
  0.1080000E+01  0.1357723E+04 -0.1567605E+01  0.1187090E-04  0.1610976E+01  0.1297644E+04 -0.2940843E+01  0.5881841E-04 -0.2845962E+01  0.2373233E+03  0.1573125E+01  0.1561228E-03  0.1555524E+01
  0.1090000E+01  0.1374319E+04 -0.1567504E+01  0.4221087E-04 -0.2259502E-01  0.1320484E+04 -0.2939803E+01  0.4943047E-04 -0.1056436E+01  0.2402248E+03  0.1573200E+01  0.8814671E-04 -0.1781984E+01
  0.1100000E+01  0.1391026E+04 -0.1567401E+01  0.3248819E-04 -0.3079174E+01  0.1343526E+04 -0.2938748E+01  0.2446696E-04 -0.6922430E+00  0.2431409E+03  0.1573276E+01  0.8446364E-04  0.1542565E+01
  0.1110000E+01  0.1407899E+04 -0.1567294E+01  0.2478177E-04  0.2617673E+01  0.1366804E+04 -0.2937677E+01  0.4461280E-04 -0.2767397E+00  0.2461254E+03  0.1573355E+01  0.8511752E-04  0.1577799E+01
  0.1120000E+01  0.1424975E+04 -0.1567183E+01  0.1242582E-04 -0.3074386E+01  0.1390371E+04 -0.2936599E+01  0.1705229E-03  0.2768421E+01  0.2491628E+03  0.1573437E+01  0.1328880E-03 -0.1494472E+01
  0.1130000E+01  0.1442186E+04 -0.1567069E+01  0.3198860E-04 -0.1236672E+01  0.1414053E+04 -0.2935484E+01  0.2105652E-03 -0.2883844E+01  0.2522331E+03  0.1573521E+01  0.3492914E-04  0.1563970E+01
  0.1140000E+01  0.1459457E+04 -0.1566952E+01  0.2103706E-04  0.4864573E+00  0.1438029E+04 -0.2934358E+01  0.1482528E-03  0.3090309E+01  0.2553228E+03  0.1573608E+01  0.6291326E-04  0.1368570E+01
  0.1150000E+01  0.1476891E+04 -0.1566830E+01  0.9823200E-05  0.9188004E+00  0.1462170E+04 -0.2933198E+01  0.2619785E-04  0.2912065E+01  0.2584441E+03  0.1573698E+01  0.2657059E-04  0.1815503E+01
  0.1160000E+01  0.1494448E+04 -0.1566704E+01  0.3925087E-04 -0.2856827E+01  0.1486662E+04 -0.2932031E+01  0.9108414E-04 -0.3038343E+01  0.2615911E+03  0.1573791E+01  0.5507290E-04  0.1484105E+01
  0.1170000E+01  0.1512180E+04 -0.1566574E+01  0.1596915E-04  0.2617817E+01  0.1511308E+04 -0.2930825E+01  0.1807049E-04  0.1517997E+01  0.2647692E+03  0.1573887E+01  0.9948701E-04  0.1520449E+01
  0.1180000E+01  0.1530143E+04 -0.1566440E+01  0.4001958E-04 -0.5396531E+00  0.1535885E+04 -0.2929534E+01  0.2706332E-03  0.2948398E+01  0.2679237E+03  0.1573986E+01  0.6670442E-04  0.1556499E+01
  0.1190000E+01  0.1548253E+04 -0.1566303E+01  0.1192629E-04  0.2999100E-01  0.1560584E+04 -0.2928173E+01  0.5684599E-04 -0.5021082E+00  0.2710692E+03  0.1574087E+01  0.5781641E-04  0.1616173E+01
  0.1200000E+01  0.1566379E+04 -0.1566162E+01  0.2127017E-04  0.2437526E+01  0.1585438E+04 -0.2926687E+01  0.2726279E-04  0.3070585E+00  0.2742161E+03  0.1574192E+01  0.1719015E-04 -0.1859098E+01
  0.1210000E+01  0.1584552E+04 -0.1566016E+01  0.1996177E-04 -0.2629854E+01  0.1610435E+04 -0.2925409E+01  0.4783972E-04  0.2019260E+01  0.2773617E+03  0.1574300E+01  0.1830907E-03  0.1613130E+01
  0.1220000E+01  0.1602867E+04 -0.1565866E+01  0.8372066E-05  0.1129438E+01  0.1635675E+04 -0.2924110E+01  0.1088024E-03  0.3102413E+01  0.2805218E+03  0.1574412E+01  0.1324836E-04 -0.1697104E+01
  0.1230000E+01  0.1621437E+04 -0.1565710E+01  0.1424751E-04 -0.1554062E+01  0.1660980E+04 -0.2922764E+01  0.2539836E-03  0.1520115E+00  0.2837150E+03  0.1574528E+01  0.5639545E-04 -0.1511575E+01
  0.1240000E+01  0.1640330E+04 -0.1565549E+01  0.2980232E-05  0.2837941E+00  0.1686733E+04 -0.2921415E+01  0.5090535E-04  0.2833258E+00  0.2870581E+03  0.1574648E+01  0.1239896E-03 -0.1596758E+01
  0.1250000E+01  0.1659404E+04 -0.1565383E+01  0.3379326E-04  0.1217806E+01  0.1712823E+04 -0.2920033E+01  0.8335917E-04  0.2509103E+01  0.2904370E+03  0.1574771E+01  0.2164365E-04  0.7961085E+00
  0.1260000E+01  0.1678762E+04 -0.1565213E+01  0.2157268E-04  0.4364603E+00  0.1739083E+04 -0.2918580E+01  0.1080332E-03 -0.2756860E+01  0.2939142E+03  0.1574898E+01  0.3035906E-03  0.1589645E+01
  0.1270000E+01  0.1698303E+04 -0.1565038E+01  0.2629207E-04  0.2608949E+01  0.1765670E+04 -0.2917167E+01  0.6172521E-04  0.3058451E+01  0.2974337E+03  0.1575029E+01  0.1010650E-04  0.2062141E+01
  0.1280000E+01  0.1718002E+04 -0.1564859E+01  0.7786556E-04  0.2396260E+01  0.1791192E+04 -0.2915926E+01  0.2306240E-04 -0.2666098E+01  0.3009826E+03  0.1575161E+01  0.1157313E-05  0.1778293E+01
  0.1290000E+01  0.1737470E+04 -0.1564675E+01  0.2318805E-04 -0.2248749E+01  0.1816914E+04 -0.2914640E+01  0.2956841E-04  0.2565471E+01  0.3044885E+03  0.1575297E+01  0.6536499E-04  0.1516057E+01
  0.1300000E+01  0.1757058E+04 -0.1564485E+01  0.4393715E-04  0.1279080E+01  0.1842989E+04 -0.2913347E+01  0.9905604E-04 -0.3012237E+01  0.3079997E+03  0.1575437E+01  0.3246874E-04  0.1326040E+01
  0.1310000E+01  0.1776743E+04 -0.1564290E+01  0.2961001E-04 -0.2606024E+00  0.1869686E+04 -0.2912087E+01  0.5596307E-04 -0.2735266E+00  0.3115167E+03  0.1575583E+01  0.4923611E-04 -0.1607122E+01
  0.1320000E+01  0.1796622E+04 -0.1564089E+01  0.2655138E-04 -0.6596649E+00  0.1896231E+04 -0.2910763E+01  0.1314866E-04 -0.1351451E+01  0.3150654E+03  0.1575733E+01  0.8036695E-04  0.1593048E+01
  0.1330000E+01  0.1816732E+04 -0.1563881E+01  0.5683249E-04  0.2909841E+01  0.1922968E+04 -0.2909429E+01  0.1346678E-03  0.6005663E+00  0.3186557E+03  0.1575887E+01  0.2817881E-04 -0.2579406E+01
  0.1340000E+01  0.1836883E+04 -0.1563667E+01  0.1420355E-04 -0.1389297E+00  0.1949172E+04 -0.2907984E+01  0.1101953E-03 -0.3983720E+00  0.3222598E+03  0.1576047E+01  0.8156906E-04  0.1232639E+01
  0.1350000E+01  0.1857148E+04 -0.1563445E+01  0.2954010E-04  0.2496477E+01  0.1976872E+04 -0.2906699E+01  0.1989269E-03  0.2969254E+01  0.3258433E+03  0.1576212E+01  0.8847225E-05  0.1325818E+01
  0.1360000E+01  0.1877541E+04 -0.1563216E+01  0.1106545E-04  0.2702037E+01  0.2003404E+04 -0.2905213E+01  0.3354055E-04 -0.2515552E+01  0.3294443E+03  0.1576383E+01  0.2751439E-04 -0.1818880E+00
  0.1370000E+01  0.1898197E+04 -0.1562980E+01  0.6005227E-04  0.2890836E+01  0.2030872E+04 -0.2903811E+01  0.1832833E-03 -0.3097533E+01  0.3331470E+03  0.1576559E+01  0.1054514E-04  0.3039674E+01
  0.1380000E+01  0.1919174E+04 -0.1562737E+01  0.2961001E-04  0.2880990E+01  0.2058568E+04 -0.2902391E+01  0.3427540E-04 -0.1668334E+01  0.3369367E+03  0.1576740E+01  0.5788679E-04  0.1477992E+01
  0.1390000E+01  0.1940243E+04 -0.1562485E+01  0.3165456E-04 -0.2797809E+01  0.2085331E+04 -0.2900799E+01  0.1225837E-03  0.4362453E+00  0.3407494E+03  0.1576928E+01  0.1018901E-03  0.1429933E+01
  0.1400000E+01  0.1961536E+04 -0.1562225E+01  0.4196205E-04  0.1180266E+01  0.2114216E+04 -0.2899440E+01  0.4063586E-03 -0.3054961E+01  0.3446098E+03  0.1577122E+01  0.1011014E-03  0.1459732E+01
  0.1410000E+01  0.1982972E+04 -0.1561956E+01  0.4773320E-04  0.6195237E+00  0.2141019E+04 -0.2897750E+01  0.1462422E-03 -0.2932307E+01  0.3485004E+03  0.1577323E+01  0.9123904E-05 -0.1346813E+01
  0.1420000E+01  0.2004523E+04 -0.1561678E+01  0.5188223E-04 -0.2786049E+01  0.2169757E+04 -0.2896263E+01  0.6831374E-04 -0.2138228E+01  0.3524164E+03  0.1577530E+01  0.7845625E-04 -0.1531281E+01
  0.1430000E+01  0.2026339E+04 -0.1561390E+01  0.1292967E-04  0.1478467E+01  0.2198122E+04 -0.2894668E+01  0.1277229E-03 -0.3061707E+01  0.3563835E+03  0.1577744E+01  0.3938718E-04  0.1282311E+01
  0.1440000E+01  0.2048769E+04 -0.1561094E+01  0.7376852E-04 -0.2295023E+01  0.2226659E+04 -0.2893034E+01  0.2270816E-03  0.3071512E-01  0.3604366E+03  0.1577966E+01  0.9633433E-04  0.1507644E+01
  0.1450000E+01  0.2071351E+04 -0.1560790E+01  0.1990405E-04 -0.1390139E+01  0.2254530E+04 -0.2891239E+01  0.5934113E-04 -0.5958726E+00  0.3643931E+03  0.1578193E+01  0.4062336E-04  0.1582535E+01
  0.1460000E+01  0.2094118E+04 -0.1560477E+01  0.5344036E-04 -0.2906894E+01  0.2282960E+04 -0.2889415E+01  0.8675374E-04 -0.2561435E+00  0.3683699E+03  0.1578428E+01  0.9746954E-05 -0.2308611E+01
  0.1470000E+01  0.2117299E+04 -0.1560155E+01  0.2183353E-04  0.1417317E+01  0.2311621E+04 -0.2887515E+01  0.1019789E-03 -0.2852655E+01  0.3724027E+03  0.1578670E+01  0.1888073E-03 -0.1560694E+01
  0.1480000E+01  0.2140784E+04 -0.1559822E+01  0.1228843E-04  0.1108233E+01  0.2339607E+04 -0.2885699E+01  0.1103425E-03  0.2678187E+01  0.3764622E+03  0.1578921E+01  0.1526252E-03  0.1486342E+01
  0.1490000E+01  0.2164737E+04 -0.1559479E+01  0.2781392E-04 -0.1328416E+01  0.2368079E+04 -0.2883892E+01  0.8416431E-04 -0.2915165E+01  0.3805746E+03  0.1579179E+01  0.8202009E-04  0.1484939E+01
  0.1500000E+01  0.2189341E+04 -0.1559125E+01  0.5031466E-04 -0.9907927E-01  0.2397145E+04 -0.2882096E+01  0.4796749E-04 -0.2678501E+01  0.3847643E+03  0.1579447E+01  0.1435582E-04  0.1336140E+01
  0.1510000E+01  0.2214238E+04 -0.1558759E+01  0.7210854E-04 -0.1330429E+01  0.2426272E+04 -0.2880238E+01  0.1238170E-03 -0.1651759E+01  0.3891382E+03  0.1579723E+01  0.1092538E-03  0.1500908E+01
  0.1520000E+01  0.2239429E+04 -0.1558381E+01  0.8639253E-04 -0.2480428E+01  0.2455675E+04 -0.2878324E+01  0.2828077E-04 -0.1020798E+01  0.3935903E+03  0.1580010E+01  0.9460108E-04  0.1645212E+01
  0.1530000E+01  0.2265013E+04 -0.1557992E+01  0.2715109E-04 -0.3741877E+00  0.2485675E+04 -0.2876374E+01  0.3561130E-03  0.2366973E+00  0.3981622E+03  0.1580305E+01  0.1533775E-03  0.1653276E+01
  0.1540000E+01  0.2290920E+04 -0.1557594E+01  0.1330466E-04  0.2225946E+01  0.2515701E+04 -0.2874286E+01  0.1781652E-03 -0.1888005E+00  0.4028170E+03  0.1580607E+01  0.1444176E-03  0.1519596E+01
  0.1550000E+01  0.2317278E+04 -0.1557189E+01  0.5460704E-04 -0.3643918E+00  0.2544294E+04 -0.2872677E+01  0.1270349E-03 -0.1427672E+01  0.4075554E+03  0.1580913E+01  0.2915491E-04 -0.1488928E+01
  0.1560000E+01  0.2343407E+04 -0.1556773E+01  0.3790969E-04  0.2767364E+01  0.2572957E+04 -0.2871083E+01  0.9428243E-04  0.2679641E+01  0.4122468E+03  0.1581225E+01  0.9296717E-04  0.1308790E+01
  0.1570000E+01  0.2369554E+04 -0.1556347E+01  0.2713092E-04  0.1056283E+01  0.2601501E+04 -0.2869416E+01  0.1854318E-04  0.1545079E+01  0.4169328E+03  0.1581545E+01  0.1577778E-03  0.1670695E+01
  0.1580000E+01  0.2395876E+04 -0.1555908E+01  0.8170769E-04  0.6423897E-01  0.2630654E+04 -0.2867772E+01  0.9878704E-04  0.3035200E+01  0.4216194E+03  0.1581877E+01  0.2716094E-03  0.1551484E+01
  0.1590000E+01  0.2422041E+04 -0.1555454E+01  0.2614099E-04 -0.1589038E+01  0.2660920E+04 -0.2866233E+01  0.2001021E-03 -0.3086160E+01  0.4262884E+03  0.1582220E+01  0.2037756E-04 -0.2254674E+01
  0.1600000E+01  0.2448842E+04 -0.1554988E+01  0.8673326E-04  0.7426227E+00  0.2689765E+04 -0.2864491E+01  0.5339262E-03 -0.3009705E+01  0.4310558E+03  0.1582573E+01  0.1687965E-03  0.1751155E+01
  0.1610000E+01  0.2476469E+04 -0.1554512E+01  0.1660222E-04  0.9588938E+00  0.2717147E+04 -0.2862543E+01  0.4956502E-04 -0.1396751E+01  0.4359540E+03  0.1582934E+01  0.1548619E-03  0.1581573E+01
  0.1620000E+01  0.2504061E+04 -0.1554019E+01  0.1696930E-03 -0.2930867E+01  0.2746462E+04 -0.2860817E+01  0.2677523E-04 -0.7352792E-01  0.4408295E+03  0.1583309E+01  0.1177894E-03 -0.1731390E+01
  0.1630000E+01  0.2531579E+04 -0.1553510E+01  0.8596908E-04 -0.2853472E+00  0.2775782E+04 -0.2859070E+01  0.1121176E-03 -0.5455252E+00  0.4456573E+03  0.1583696E+01  0.2243284E-03  0.1537843E+01
  0.1640000E+01  0.2559052E+04 -0.1552985E+01  0.7395425E-04 -0.3022786E+01  0.2804482E+04 -0.2857221E+01  0.8474431E-04 -0.3051442E+01  0.4504837E+03  0.1584095E+01  0.2845411E-04 -0.1101264E+01
  0.1650000E+01  0.2586826E+04 -0.1552444E+01  0.1691500E-04 -0.2852372E+01  0.2833984E+04 -0.2855442E+01  0.9721518E-04 -0.2674106E+01  0.4554544E+03  0.1584506E+01  0.6493957E-04 -0.1478882E+01