 VARIABLES="Time (s)"
"AddedMass    1" "IRF    1"
"AddedMass    2" "IRF    2"
"AddedMass    3" "IRF    3"
"AddedMass    4" "IRF    4"
"AddedMass    5" "IRF    5"
"AddedMass    6" "IRF    6"
Zone t="DoF    1",I=   100,F=POINT
  0.0000000E+00  0.3574291E+03  0.1150050E+05  0.2118431E-08  0.7666940E-07  0.7290076E-05  0.1736933E-03 -0.2086761E-08 -0.2783345E-07 -0.7540595E+02 -0.1598871E+04 -0.2987960E-06  0.2326534E-04
  0.1000000E+00  0.3574291E+03  0.9002912E+04  0.2118431E-08  0.4286181E-07  0.7290076E-05  0.1672571E-03 -0.2086761E-08 -0.2715553E-07 -0.7540595E+02 -0.1302604E+04 -0.2987960E-06  0.2065285E-04
  0.2000000E+00  0.3574291E+03  0.3577916E+04  0.2118431E-08 -0.3409511E-07  0.7290076E-05  0.1450820E-03 -0.2086761E-08 -0.2774359E-07 -0.7540595E+02 -0.6088073E+03 -0.2987960E-06  0.1454366E-04
  0.3000000E+00  0.3574291E+03 -0.1312173E+04  0.2118431E-08 -0.7193503E-07  0.7290076E-05  0.1092421E-03 -0.2086761E-08 -0.3289119E-07 -0.7540595E+02  0.1091754E+03 -0.2987960E-06  0.8721143E-05
  0.4000000E+00  0.3574291E+03 -0.4224765E+04  0.2118431E-08 -0.6953393E-07  0.7290076E-05  0.7424825E-04 -0.2086761E-08 -0.3911017E-07 -0.7540595E+02  0.6105303E+03 -0.2987960E-06  0.3689883E-05
  0.5000000E+00  0.3574291E+03 -0.5304983E+04  0.2118431E-08 -0.1069774E-06  0.7290076E-05  0.4758639E-04 -0.2086761E-08 -0.3640886E-07 -0.7540595E+02  0.8334607E+03 -0.2987960E-06 -0.3266687E-05
  0.6000000E+00  0.3574291E+03 -0.5155636E+04  0.2118431E-08 -0.1364908E-06  0.7290076E-05  0.2206233E-04 -0.2086761E-08 -0.2079190E-07 -0.7540595E+02  0.8283215E+03 -0.2987960E-06 -0.1485247E-04
  0.7000000E+00  0.3574291E+03 -0.4298000E+04  0.2118431E-08 -0.1256473E-06  0.7290076E-05 -0.3629832E-05 -0.2086761E-08  0.2532448E-08 -0.7540595E+02  0.6818801E+03 -0.2987960E-06 -0.2791177E-04
  0.8000000E+00  0.3574291E+03 -0.3049741E+04  0.2118431E-08 -0.1339440E-06  0.7290076E-05 -0.2202525E-04 -0.2086761E-08  0.3009401E-07 -0.7540595E+02  0.4694129E+03 -0.2987960E-06 -0.3403064E-04
  0.9000000E+00  0.3574291E+03 -0.1762565E+04  0.2118431E-08 -0.1345698E-06  0.7290076E-05 -0.3716979E-04 -0.2086761E-08  0.5799530E-07 -0.7540595E+02  0.2527985E+03 -0.2987960E-06 -0.2977344E-04
  0.1000000E+01  0.3574291E+03 -0.5766743E+03  0.2118431E-08 -0.7709767E-07  0.7290076E-05 -0.5687155E-04 -0.2086761E-08  0.7804267E-07 -0.7540595E+02  0.6303070E+02 -0.2987960E-06 -0.1720659E-04
  0.1100000E+01  0.3574291E+03  0.4360049E+03  0.2118431E-08  0.7739178E-07  0.7290076E-05 -0.7059487E-04 -0.2086761E-08  0.8474615E-07 -0.7540595E+02 -0.8884748E+02 -0.2987960E-06  0.1097563E-06
  0.1200000E+01  0.3574291E+03  0.1178233E+04  0.2118431E-08  0.2959891E-06  0.7290076E-05 -0.7152237E-04 -0.2086761E-08  0.7810247E-07 -0.7540595E+02 -0.1979984E+03 -0.2987960E-06  0.1602784E-04
  0.1300000E+01  0.3574291E+03  0.1649102E+04  0.2118431E-08  0.4328089E-06  0.7290076E-05 -0.6744276E-04 -0.2086761E-08  0.6062826E-07 -0.7540595E+02 -0.2639481E+03 -0.2987960E-06  0.2514567E-04
  0.1400000E+01  0.3574291E+03  0.1829035E+04  0.2118431E-08  0.4698767E-06  0.7290076E-05 -0.6280201E-04 -0.2086761E-08  0.3552223E-07 -0.7540595E+02 -0.2848534E+03 -0.2987960E-06  0.3048523E-04
  0.1500000E+01  0.3574291E+03  0.1714076E+04  0.2118431E-08  0.4518182E-06  0.7290076E-05 -0.6002387E-04 -0.2086761E-08  0.8183387E-08 -0.7540595E+02 -0.2629363E+03 -0.2987960E-06  0.3289266E-04
  0.1600000E+01  0.3574291E+03  0.1383687E+04  0.2118431E-08  0.3463316E-06  0.7290076E-05 -0.6453964E-04 -0.2086761E-08 -0.1929923E-07 -0.7540595E+02 -0.2090524E+03 -0.2987960E-06  0.2631916E-04
  0.1700000E+01  0.3574291E+03  0.9766995E+03  0.2118431E-08  0.1955167E-06  0.7290076E-05 -0.8092877E-04 -0.2086761E-08 -0.4578025E-07 -0.7540595E+02 -0.1403859E+03 -0.2987960E-06  0.1151299E-04
  0.1800000E+01  0.3574291E+03  0.5761538E+03  0.2118431E-08  0.1503967E-07  0.7290076E-05 -0.9994941E-04 -0.2086761E-08 -0.6739332E-07 -0.7540595E+02 -0.7253017E+02 -0.2987960E-06 -0.6205413E-05
  0.1900000E+01  0.3574291E+03  0.2566630E+03  0.2118431E-08 -0.2412574E-06  0.7290076E-05 -0.9918602E-04 -0.2086761E-08 -0.8097502E-07 -0.7540595E+02 -0.1955320E+02 -0.2987960E-06 -0.2468533E-04
  0.2000000E+01  0.3574291E+03  0.2646945E+02  0.2118431E-08 -0.4779369E-06  0.7290076E-05 -0.7175480E-04 -0.2086761E-08 -0.8155716E-07 -0.7540595E+02  0.1499329E+02 -0.2987960E-06 -0.3957772E-04
  0.2100000E+01  0.3574291E+03 -0.2721826E+03  0.2118431E-08 -0.6072982E-06  0.7290076E-05 -0.3986655E-04 -0.2086761E-08 -0.6793275E-07 -0.7540595E+02  0.4840656E+02 -0.2987960E-06 -0.4211754E-04
  0.2200000E+01  0.3574291E+03 -0.6431915E+03  0.2118431E-08 -0.6167093E-06  0.7290076E-05 -0.2313013E-04 -0.2086761E-08 -0.4472115E-07 -0.7540595E+02  0.9139426E+02 -0.2987960E-06 -0.2849626E-04
  0.2300000E+01  0.3574291E+03 -0.9335156E+03  0.2118431E-08 -0.4656668E-06  0.7290076E-05 -0.1703913E-04 -0.2086761E-08 -0.1970720E-07 -0.7540595E+02  0.1306045E+03 -0.2987960E-06 -0.5537902E-05
  0.2400000E+01  0.3574291E+03 -0.9135777E+03  0.2118431E-08 -0.2671224E-06  0.7290076E-05 -0.1099494E-04 -0.2086761E-08 -0.8488494E-09 -0.7540595E+02  0.1342895E+03 -0.2987960E-06  0.1115153E-04
  0.2500000E+01  0.3574291E+03 -0.5050922E+03  0.2118431E-08 -0.1217318E-06  0.7290076E-05  0.8171975E-05 -0.2086761E-08  0.1358229E-07 -0.7540595E+02  0.8600896E+02 -0.2987960E-06  0.1278785E-04
  0.2600000E+01  0.3574291E+03 -0.2201400E+02  0.2118431E-08  0.5491855E-07  0.7290076E-05  0.5022269E-04 -0.2086761E-08  0.3125277E-07 -0.7540595E+02  0.1398482E+02 -0.2987960E-06  0.8946642E-05
  0.2700000E+01  0.3574291E+03  0.1129675E+03  0.2118431E-08  0.2241737E-06  0.7290076E-05  0.8893145E-04 -0.2086761E-08  0.5007062E-07 -0.7540595E+02 -0.2284668E+02 -0.2987960E-06  0.1080467E-04
  0.2800000E+01  0.3574291E+03 -0.8506004E+02  0.2118431E-08  0.3139914E-06  0.7290076E-05  0.8249021E-04 -0.2086761E-08  0.6126051E-07 -0.7540595E+02 -0.5324677E+01 -0.2987960E-06  0.2115543E-04
  0.2900000E+01  0.3574291E+03 -0.1603098E+03  0.2118431E-08  0.3620946E-06  0.7290076E-05  0.4831237E-04 -0.2086761E-08  0.6134668E-07 -0.7540595E+02  0.1351377E+02 -0.2987960E-06  0.3411978E-04
  0.3000000E+01  0.3574291E+03  0.1179433E+03  0.2118431E-08  0.3598487E-06  0.7290076E-05  0.4349811E-04 -0.2086761E-08  0.5151537E-07 -0.7540595E+02 -0.1231076E+02 -0.2987960E-06  0.3867076E-04
  0.3100000E+01  0.3574291E+03  0.3057707E+03  0.2118431E-08  0.3044201E-06  0.7290076E-05  0.5698116E-04 -0.2086761E-08  0.3572524E-07 -0.7540595E+02 -0.4107029E+02 -0.2987960E-06  0.2726178E-04
  0.3200000E+01  0.3574291E+03  0.5231672E+02  0.2118431E-08  0.2145787E-06  0.7290076E-05  0.3083723E-04 -0.2086761E-08  0.2022978E-07 -0.7540595E+02 -0.1758701E+02 -0.2987960E-06  0.1395555E-05
  0.3300000E+01  0.3574291E+03 -0.1624600E+03  0.2118431E-08  0.9404211E-07  0.7290076E-05 -0.2170603E-04 -0.2086761E-08  0.7461323E-08 -0.7540595E+02  0.1745285E+02 -0.2987960E-06 -0.2679463E-04
  0.3400000E+01  0.3574291E+03  0.1034191E+03  0.2118431E-08  0.5660019E-08  0.7290076E-05 -0.3441874E-04 -0.2086761E-08 -0.3161509E-08 -0.7540595E+02 -0.5170027E+01 -0.2987960E-06 -0.4162781E-04
  0.3500000E+01  0.3574291E+03  0.3948578E+03  0.2118431E-08 -0.4211775E-07  0.7290076E-05 -0.1674823E-04 -0.2086761E-08 -0.1176624E-07 -0.7540595E+02 -0.4721832E+02 -0.2987960E-06 -0.3694905E-04
  0.3600000E+01  0.3574291E+03  0.2420428E+03  0.2118431E-08 -0.1037282E-06  0.7290076E-05 -0.2008846E-04 -0.2086761E-08 -0.1784742E-07 -0.7540595E+02 -0.3630876E+02 -0.2987960E-06 -0.2236294E-04
  0.3700000E+01  0.3574291E+03  0.4315940E+02  0.2118431E-08 -0.1141686E-06  0.7290076E-05 -0.2068451E-04 -0.2086761E-08 -0.1993295E-07 -0.7540595E+02 -0.1080032E+02 -0.2987960E-06 -0.7706604E-05
  0.3800000E+01  0.3574291E+03  0.6077078E+02  0.2118431E-08 -0.3631925E-07  0.7290076E-05  0.2268813E-05 -0.2086761E-08 -0.2076750E-07 -0.7540595E+02 -0.1160556E+02 -0.2987960E-06  0.3493266E-05
  0.3900000E+01  0.3574291E+03 -0.6237905E+02  0.2118431E-08  0.2136445E-07  0.7290076E-05  0.3153438E-05 -0.2086761E-08 -0.2942111E-07 -0.7540595E+02  0.4104977E+01 -0.2987960E-06  0.7965871E-05
  0.4000000E+01  0.3574291E+03 -0.2932653E+03  0.2118431E-08 -0.1449551E-07  0.7290076E-05 -0.2766320E-04 -0.2086761E-08 -0.4663275E-07 -0.7540595E+02  0.3909103E+02 -0.2987960E-06  0.6527655E-05
  0.4100000E+01  0.3574291E+03 -0.1746705E+03  0.2118431E-08 -0.1087225E-06  0.7290076E-05 -0.3741695E-04 -0.2086761E-08 -0.6236655E-07 -0.7540595E+02  0.3215512E+02 -0.2987960E-06  0.3240931E-05
  0.4200000E+01  0.3574291E+03  0.7224189E+02  0.2118431E-08 -0.1659565E-06  0.7290076E-05 -0.1996925E-04 -0.2086761E-08 -0.6828643E-07 -0.7540595E+02  0.7822700E+00 -0.2987960E-06  0.1229331E-05
  0.4300000E+01  0.3574291E+03  0.9633970E+02  0.2118431E-08 -0.1116873E-06  0.7290076E-05 -0.1216919E-04 -0.2086761E-08 -0.6007316E-07 -0.7540595E+02 -0.9090221E+01 -0.2987960E-06  0.1839685E-05
  0.4400000E+01  0.3574291E+03  0.8940255E+02  0.2118431E-08 -0.2986601E-07  0.7290076E-05 -0.8400613E-05 -0.2086761E-08 -0.3769549E-07 -0.7540595E+02 -0.1543153E+02 -0.2987960E-06  0.2366998E-05
  0.4500000E+01  0.3574291E+03  0.9491488E+01  0.2118431E-08 -0.4750470E-07  0.7290076E-05 -0.4370512E-05 -0.2086761E-08 -0.4625526E-08 -0.7540595E+02 -0.9952192E+01 -0.2987960E-06 -0.7112654E-06
  0.4600000E+01  0.3574291E+03 -0.1599749E+03  0.2118431E-08 -0.1262115E-06  0.7290076E-05 -0.1984613E-04 -0.2086761E-08  0.3351064E-07 -0.7540595E+02  0.1447584E+02 -0.2987960E-06 -0.5240245E-05
  0.4700000E+01  0.3574291E+03 -0.1458314E+03  0.2118431E-08 -0.1696131E-06  0.7290076E-05 -0.4074450E-04 -0.2086761E-08  0.6873479E-07 -0.7540595E+02  0.2145055E+02 -0.2987960E-06 -0.6023891E-05
  0.4800000E+01  0.3574291E+03 -0.7998667E+01  0.2118431E-08 -0.1313106E-06  0.7290076E-05 -0.4081279E-04 -0.2086761E-08  0.9071228E-07 -0.7540595E+02  0.7839134E+01 -0.2987960E-06  0.2560296E-05
  0.4900000E+01  0.3574291E+03  0.5836361E+02  0.2118431E-08 -0.4478850E-07  0.7290076E-05 -0.3153145E-04 -0.2086761E-08  0.9251588E-07 -0.7540595E+02 -0.4207003E+01 -0.2987960E-06  0.2172091E-04
  0.5000000E+01  0.3574291E+03  0.4431818E+02  0.2118431E-08  0.1747719E-07  0.7290076E-05 -0.3252508E-04 -0.2086761E-08  0.7443494E-07 -0.7540595E+02 -0.6600135E+01 -0.2987960E-06  0.3739824E-04
  0.5100000E+01  0.3574291E+03  0.3828679E+01  0.2118431E-08  0.7721631E-07  0.7290076E-05 -0.3041943E-04 -0.2086761E-08  0.4592001E-07 -0.7540595E+02 -0.2265589E+01 -0.2987960E-06  0.3367700E-04
  0.5200000E+01  0.3574291E+03  0.1071544E+02  0.2118431E-08  0.1733946E-06  0.7290076E-05 -0.5896903E-05 -0.2086761E-08  0.1918177E-07 -0.7540595E+02 -0.1893818E+01 -0.2987960E-06  0.1406303E-04
  0.5300000E+01  0.3574291E+03  0.1103060E+03  0.2118431E-08  0.2512022E-06  0.7290076E-05  0.3860319E-04 -0.2086761E-08 -0.1498121E-08 -0.7540595E+02 -0.1432047E+02 -0.2987960E-06 -0.5116611E-05
  0.5400000E+01  0.3574291E+03  0.1211004E+03  0.2118431E-08  0.2538198E-06  0.7290076E-05  0.8423240E-04 -0.2086761E-08 -0.1558709E-07 -0.7540595E+02 -0.1879604E+02 -0.2987960E-06 -0.1596131E-04
  0.5500000E+01  0.3574291E+03 -0.4041330E+02  0.2118431E-08  0.2301735E-06  0.7290076E-05  0.1154428E-03 -0.2086761E-08 -0.2346929E-07 -0.7540595E+02 -0.7820250E+00 -0.2987960E-06 -0.2309993E-04
  0.5600000E+01  0.3574291E+03 -0.1793716E+03  0.2118431E-08  0.1973261E-06  0.7290076E-05  0.1303367E-03 -0.2086761E-08 -0.2800543E-07 -0.7540595E+02  0.2123105E+02 -0.2987960E-06 -0.2956964E-04
  0.5700000E+01  0.3574291E+03 -0.1501370E+03  0.2118431E-08  0.9185840E-07  0.7290076E-05  0.1330495E-03 -0.2086761E-08 -0.2989810E-07 -0.7540595E+02  0.2593791E+02 -0.2987960E-06 -0.3114574E-04
  0.5800000E+01  0.3574291E+03  0.4950483E+02  0.2118431E-08 -0.5284551E-07  0.7290076E-05  0.1310177E-03 -0.2086761E-08 -0.3040264E-07 -0.7540595E+02  0.3601812E+01 -0.2987960E-06 -0.2588866E-04
  0.5900000E+01  0.3574291E+03  0.1860162E+03  0.2118431E-08 -0.1656433E-06  0.7290076E-05  0.1246257E-03 -0.2086761E-08 -0.3455486E-07 -0.7540595E+02 -0.2055042E+02 -0.2987960E-06 -0.1820726E-04
  0.6000000E+01  0.3574291E+03  0.1243002E+03  0.2118431E-08 -0.1991312E-06  0.7290076E-05  0.1083460E-03 -0.2086761E-08 -0.4514780E-07 -0.7540595E+02 -0.2260076E+02 -0.2987960E-06 -0.1105556E-04
  0.6100000E+01  0.3574291E+03 -0.2457609E+02  0.2118431E-08 -0.1376413E-06  0.7290076E-05  0.7448347E-04 -0.2086761E-08 -0.5446362E-07 -0.7540595E+02 -0.5728162E+01 -0.2987960E-06 -0.3622499E-05
  0.6200000E+01  0.3574291E+03 -0.8261295E+02  0.2118431E-08 -0.8633704E-07  0.7290076E-05  0.2827807E-04 -0.2086761E-08 -0.5057298E-07 -0.7540595E+02  0.7400968E+01 -0.2987960E-06  0.6756136E-05
  0.6300000E+01  0.3574291E+03 -0.9092405E+02  0.2118431E-08 -0.1077821E-06  0.7290076E-05 -0.1341571E-04 -0.2086761E-08 -0.3150226E-07 -0.7540595E+02  0.1341956E+02 -0.2987960E-06  0.2074245E-04
  0.6400000E+01  0.3574291E+03 -0.1005835E+03  0.2118431E-08 -0.1136439E-06  0.7290076E-05 -0.4031002E-04 -0.2086761E-08 -0.5190714E-08 -0.7540595E+02  0.1772865E+02 -0.2987960E-06  0.3495157E-04
  0.6500000E+01  0.3574291E+03 -0.2135559E+02  0.2118431E-08 -0.7462890E-07  0.7290076E-05 -0.5430348E-04 -0.2086761E-08  0.1905242E-07 -0.7540595E+02  0.8820846E+01 -0.2987960E-06  0.4119327E-04
  0.6600000E+01  0.3574291E+03  0.8575213E+02  0.2118431E-08 -0.4550804E-07  0.7290076E-05 -0.6343841E-04 -0.2086761E-08  0.3723618E-07 -0.7540595E+02 -0.7969073E+01 -0.2987960E-06  0.3276802E-04
  0.6700000E+01  0.3574291E+03  0.1314789E+03  0.2118431E-08 -0.2446456E-07  0.7290076E-05 -0.6691786E-04 -0.2086761E-08  0.4784521E-07 -0.7540595E+02 -0.1932430E+02 -0.2987960E-06  0.1355835E-04
  0.6800000E+01  0.3574291E+03  0.5122765E+02  0.2118431E-08 -0.1316347E-09  0.7290076E-05 -0.7206875E-04 -0.2086761E-08  0.4745532E-07 -0.7540595E+02 -0.1248913E+02 -0.2987960E-06 -0.6289087E-05
  0.6900000E+01  0.3574291E+03 -0.6097591E+02  0.2118431E-08  0.1882208E-07  0.7290076E-05 -0.8716055E-04 -0.2086761E-08  0.3707647E-07 -0.7540595E+02  0.3844568E+01 -0.2987960E-06 -0.1914869E-04
  0.7000000E+01  0.3574291E+03 -0.5061750E+02  0.2118431E-08  0.3148643E-07  0.7290076E-05 -0.9977712E-04 -0.2086761E-08  0.2404591E-07 -0.7540595E+02  0.6817843E+01 -0.2987960E-06 -0.2292890E-04
  0.7100000E+01  0.3574291E+03 -0.1710413E+02  0.2118431E-08  0.4506683E-07  0.7290076E-05 -0.1040019E-03 -0.2086761E-08  0.1035859E-07 -0.7540595E+02  0.3888609E+01 -0.2987960E-06 -0.1748289E-04
  0.7200000E+01  0.3574291E+03 -0.3221954E+02  0.2118431E-08  0.8263924E-07  0.7290076E-05 -0.1095460E-03 -0.2086761E-08 -0.2401967E-08 -0.7540595E+02  0.5305991E+01 -0.2987960E-06 -0.5979542E-05
  0.7300000E+01  0.3574291E+03 -0.4358347E+02  0.2118431E-08  0.1557292E-06  0.7290076E-05 -0.1170327E-03 -0.2086761E-08 -0.7935165E-08 -0.7540595E+02  0.7481572E+01 -0.2987960E-06  0.1862142E-05
  0.7400000E+01  0.3574291E+03 -0.4164182E+01  0.2118431E-08  0.2330106E-06  0.7290076E-05 -0.1135985E-03 -0.2086761E-08 -0.4271132E-08 -0.7540595E+02  0.3532655E+01 -0.2987960E-06 -0.3780207E-06
  0.7500000E+01  0.3574291E+03  0.7522861E+02  0.2118431E-08  0.2314453E-06  0.7290076E-05 -0.9704757E-04 -0.2086761E-08  0.2521468E-08 -0.7540595E+02 -0.7699100E+01 -0.2987960E-06 -0.6726246E-05
  0.7600000E+01  0.3574291E+03  0.1084407E+03  0.2118431E-08  0.1148703E-06  0.7290076E-05 -0.7296500E-04 -0.2086761E-08  0.4871299E-08 -0.7540595E+02 -0.1513771E+02 -0.2987960E-06 -0.7220960E-05
  0.7700000E+01  0.3574291E+03  0.7102454E+02  0.2118431E-08 -0.6449135E-07  0.7290076E-05 -0.4356246E-04 -0.2086761E-08  0.2293014E-08 -0.7540595E+02 -0.1406948E+02 -0.2987960E-06 -0.3141946E-05
  0.7800000E+01  0.3574291E+03 -0.5660926E+02  0.2118431E-08 -0.2324754E-06  0.7290076E-05 -0.2646444E-04 -0.2086761E-08  0.3714307E-09 -0.7540595E+02  0.1482605E+01 -0.2987960E-06  0.6813480E-06
  0.7900000E+01  0.3574291E+03 -0.1589443E+03  0.2118431E-08 -0.3004895E-06  0.7290076E-05 -0.2698856E-04 -0.2086761E-08 -0.3918446E-08 -0.7540595E+02  0.1956248E+02 -0.2987960E-06  0.7663703E-05
  0.8000000E+01  0.3574291E+03 -0.1224386E+03  0.2118431E-08 -0.2562329E-06  0.7290076E-05 -0.2784599E-04 -0.2086761E-08 -0.1662361E-07 -0.7540595E+02  0.2126283E+02 -0.2987960E-06  0.1472905E-04
  0.8100000E+01  0.3574291E+03  0.2103438E+02  0.2118431E-08 -0.1690248E-06  0.7290076E-05 -0.2068581E-04 -0.2086761E-08 -0.2957286E-07 -0.7540595E+02  0.4311738E+01 -0.2987960E-06  0.1245253E-04
  0.8200000E+01  0.3574291E+03  0.1336131E+03  0.2118431E-08 -0.3073403E-07  0.7290076E-05 -0.1205186E-04 -0.2086761E-08 -0.3508933E-07 -0.7540595E+02 -0.1474537E+02 -0.2987960E-06  0.2882590E-05
  0.8300000E+01  0.3574291E+03  0.1187722E+03  0.2118431E-08  0.1398568E-06  0.7290076E-05 -0.2654263E-05 -0.2086761E-08 -0.2995655E-07 -0.7540595E+02 -0.1903905E+02 -0.2987960E-06 -0.5266564E-05
  0.8400001E+01  0.3574291E+03  0.2762132E+02  0.2118431E-08  0.2463688E-06  0.7290076E-05  0.1004705E-04 -0.2086761E-08 -0.1205955E-07 -0.7540595E+02 -0.9647677E+01 -0.2987960E-06 -0.1138792E-04
  0.8500000E+01  0.3574291E+03 -0.5050615E+02  0.2118431E-08  0.2542980E-06  0.7290076E-05  0.2216992E-04 -0.2086761E-08  0.9669883E-08 -0.7540595E+02  0.3208832E+01 -0.2987960E-06 -0.1724066E-04
  0.8600000E+01  0.3574291E+03 -0.7202935E+02  0.2118431E-08  0.1736897E-06  0.7290076E-05  0.3928430E-04 -0.2086761E-08  0.2444983E-07 -0.7540595E+02  0.1016387E+02 -0.2987960E-06 -0.2047932E-04
  0.8700000E+01  0.3574291E+03 -0.6299474E+02  0.2118431E-08  0.6294690E-07  0.7290076E-05  0.6553188E-04 -0.2086761E-08  0.2778222E-07 -0.7540595E+02  0.1138969E+02 -0.2987960E-06 -0.1662965E-04
  0.8800000E+01  0.3574291E+03 -0.3263939E+02  0.2118431E-08 -0.3803436E-07  0.7290076E-05  0.9562983E-04 -0.2086761E-08  0.2051577E-07 -0.7540595E+02  0.7479843E+01 -0.2987960E-06 -0.2325613E-05
  0.8900001E+01  0.3574291E+03  0.9010498E+01  0.2118431E-08 -0.1464464E-06  0.7290076E-05  0.1257877E-03 -0.2086761E-08  0.8857440E-08 -0.7540595E+02  0.9627450E+00 -0.2987960E-06  0.1730039E-04
  0.9000000E+01  0.3574291E+03  0.5867464E+02  0.2118431E-08 -0.2083598E-06  0.7290076E-05  0.1577410E-03 -0.2086761E-08 -0.5026477E-08 -0.7540595E+02 -0.7051231E+01 -0.2987960E-06  0.3109522E-04
  0.9100000E+01  0.3574291E+03  0.6678285E+02  0.2118431E-08 -0.1969498E-06  0.7290076E-05  0.1812240E-03 -0.2086761E-08 -0.1916541E-07 -0.7540595E+02 -0.1038328E+02 -0.2987960E-06  0.3135566E-04
  0.9200000E+01  0.3574291E+03  0.3447132E+02  0.2118431E-08 -0.1612014E-06  0.7290076E-05  0.1860328E-03 -0.2086761E-08 -0.2560625E-07 -0.7540595E+02 -0.7691306E+01 -0.2987960E-06  0.2148078E-04
  0.9300000E+01  0.3574291E+03 -0.9612868E+00  0.2118431E-08 -0.6978139E-07  0.7290076E-05  0.1760363E-03 -0.2086761E-08 -0.2113059E-07 -0.7540595E+02 -0.2936316E+01 -0.2987960E-06  0.1095300E-04
  0.9400001E+01  0.3574291E+03 -0.3766085E+02  0.2118431E-08  0.5351506E-07  0.7290076E-05  0.1523692E-03 -0.2086761E-08 -0.6650994E-08 -0.7540595E+02  0.3380833E+01 -0.2987960E-06  0.2293945E-05
  0.9500000E+01  0.3574291E+03 -0.5991175E+02  0.2118431E-08  0.1178577E-06  0.7290076E-05  0.1158274E-03 -0.2086761E-08  0.1756103E-07 -0.7540595E+02  0.8425603E+01 -0.2987960E-06 -0.7924927E-05
  0.9600000E+01  0.3574291E+03 -0.6944706E+02  0.2118431E-08  0.1561189E-06  0.7290076E-05  0.7248037E-04 -0.2086761E-08  0.4048555E-07 -0.7540595E+02  0.1174787E+02 -0.2987960E-06 -0.1921473E-04
  0.9700000E+01  0.3574291E+03 -0.2794193E+02  0.2118431E-08  0.1653456E-06  0.7290076E-05  0.3302330E-04 -0.2086761E-08  0.5113347E-07 -0.7540595E+02  0.7968362E+01 -0.2987960E-06 -0.2720875E-04
  0.9800000E+01  0.3574291E+03  0.6783611E+02  0.2118431E-08  0.9017109E-07  0.7290076E-05  0.2119447E-05 -0.2086761E-08  0.4948746E-07 -0.7540595E+02 -0.5334185E+01 -0.2987960E-06 -0.2924348E-04
  0.9900001E+01  0.3574291E+03  0.1179352E+03  0.2118431E-08  0.1701328E-07  0.7290076E-05 -0.2176234E-04 -0.2086761E-08  0.3768444E-07 -0.7540595E+02 -0.1591172E+02 -0.2987960E-06 -0.2452940E-04
Zone t="DoF    2",I=   100,F=POINT
  0.0000000E+00 -0.8080343E-10 -0.2442691E-06  0.1664862E+03  0.4966825E+04 -0.7975550E-07 -0.5639616E-05  0.1349865E+02  0.2985681E+03  0.1254688E-08  0.2338740E-06 -0.1475463E-05 -0.4458566E-04
  0.1000000E+00 -0.8080343E-10 -0.1517538E-06  0.1664862E+03  0.3773538E+04 -0.7975550E-07 -0.5122829E-05  0.1349865E+02  0.1937741E+03  0.1254688E-08  0.2174168E-06 -0.1475463E-05 -0.3938831E-04
  0.2000000E+00 -0.8080343E-10  0.7063900E-07  0.1664862E+03  0.1194117E+04 -0.7975550E-07 -0.3784086E-05  0.1349865E+02 -0.3304938E+02  0.1254688E-08  0.1760236E-06 -0.1475463E-05 -0.2470420E-04
  0.3000000E+00 -0.8080343E-10  0.2717202E-06  0.1664862E+03 -0.1050675E+04 -0.7975550E-07 -0.2052638E-05  0.1349865E+02 -0.2204619E+03  0.1254688E-08  0.1231072E-06 -0.1475463E-05 -0.4188645E-05
  0.4000000E+00 -0.8080343E-10  0.2881382E-06  0.1664862E+03 -0.2221157E+04 -0.7975550E-07 -0.2499029E-06  0.1349865E+02 -0.2820146E+03  0.1254688E-08  0.6352100E-07 -0.1475463E-05  0.1565923E-04
  0.5000000E+00 -0.8080343E-10  0.9643633E-07  0.1664862E+03 -0.2461073E+04 -0.7975550E-07  0.1481260E-05  0.1349865E+02 -0.2250206E+03  0.1254688E-08 -0.5630513E-08 -0.1475463E-05  0.2764515E-04
  0.6000000E+00 -0.8080343E-10 -0.1804694E-06  0.1664862E+03 -0.2094051E+04 -0.7975550E-07  0.3019672E-05  0.1349865E+02 -0.9920074E+02  0.1254688E-08 -0.8226748E-07 -0.1475463E-05  0.3052063E-04
  0.7000000E+00 -0.8080343E-10 -0.4106658E-06  0.1664862E+03 -0.1415457E+04 -0.7975550E-07  0.4156299E-05  0.1349865E+02  0.3902754E+02  0.1254688E-08 -0.1521325E-06 -0.1475463E-05  0.2892511E-04
  0.8000000E+00 -0.8080343E-10 -0.5119209E-06  0.1664862E+03 -0.6656456E+03 -0.7975550E-07  0.4670069E-05  0.1349865E+02  0.1466231E+03  0.1254688E-08 -0.2013464E-06 -0.1475463E-05  0.2378032E-04
  0.9000000E+00 -0.8080343E-10 -0.4590635E-06  0.1664862E+03 -0.1934686E+02 -0.7975550E-07  0.4495639E-05  0.1349865E+02  0.2022516E+03  0.1254688E-08 -0.2261272E-06 -0.1475463E-05  0.1541574E-04
  0.1000000E+01 -0.8080343E-10 -0.2648428E-06  0.1664862E+03  0.4238982E+03 -0.7975550E-07  0.3823554E-05  0.1349865E+02  0.2043677E+03  0.1254688E-08 -0.2250599E-06 -0.1475463E-05  0.6712873E-05
  0.1100000E+01 -0.8080343E-10  0.3780126E-07  0.1664862E+03  0.6360436E+03 -0.7975550E-07  0.2876816E-05  0.1349865E+02  0.1633970E+03  0.1254688E-08 -0.1973572E-06 -0.1475463E-05 -0.1593146E-05
  0.1200000E+01 -0.8080343E-10  0.3500966E-06  0.1664862E+03  0.6440146E+03 -0.7975550E-07  0.1623938E-05  0.1349865E+02  0.9530419E+02  0.1254688E-08 -0.1474552E-06 -0.1475463E-05 -0.1016837E-04
  0.1300000E+01 -0.8080343E-10  0.5680370E-06  0.1664862E+03  0.5046807E+03 -0.7975550E-07 -0.4524551E-07  0.1349865E+02  0.1834845E+02  0.1254688E-08 -0.8206199E-07 -0.1475463E-05 -0.1897085E-04
  0.1400000E+01 -0.8080343E-10  0.6621518E-06  0.1664862E+03  0.2963044E+03 -0.7975550E-07 -0.1965661E-05  0.1349865E+02 -0.4975169E+02  0.1254688E-08 -0.6930859E-08 -0.1475463E-05 -0.2507942E-04
  0.1500000E+01 -0.8080343E-10  0.6360606E-06  0.1664862E+03  0.1029561E+03 -0.7975550E-07 -0.3700392E-05  0.1349865E+02 -0.9592895E+02  0.1254688E-08  0.6934349E-07 -0.1475463E-05 -0.2407692E-04
  0.1600000E+01 -0.8080343E-10  0.5134756E-06  0.1664862E+03 -0.2062302E+02 -0.7975550E-07 -0.4805282E-05  0.1349865E+02 -0.1141263E+03  0.1254688E-08  0.1325032E-06 -0.1475463E-05 -0.1533150E-04
  0.1700000E+01 -0.8080343E-10  0.3391029E-06  0.1664862E+03 -0.5057952E+02 -0.7975550E-07 -0.5047977E-05  0.1349865E+02 -0.1041343E+03  0.1254688E-08  0.1717278E-06 -0.1475463E-05 -0.2321941E-05
  0.1800000E+01 -0.8080343E-10  0.1313406E-06  0.1664862E+03 -0.1294038E+02 -0.7975550E-07 -0.4356197E-05  0.1349865E+02 -0.7343198E+02  0.1254688E-08  0.1890369E-06 -0.1475463E-05  0.9686360E-05
  0.1900000E+01 -0.8080343E-10 -0.1548461E-06  0.1664862E+03  0.4376002E+02 -0.7975550E-07 -0.2751791E-05  0.1349865E+02 -0.3493024E+02  0.1254688E-08  0.1907930E-06 -0.1475463E-05  0.1409723E-04
  0.2000000E+01 -0.8080343E-10 -0.5393459E-06  0.1664862E+03  0.8969376E+02 -0.7975550E-07 -0.6151703E-06  0.1349865E+02  0.1694349E+00  0.1254688E-08  0.1749020E-06 -0.1475463E-05  0.9845087E-05
  0.2100000E+01 -0.8080343E-10 -0.9013275E-06  0.1664862E+03  0.9551424E+02 -0.7975550E-07  0.1375393E-05  0.1349865E+02  0.2451689E+02  0.1254688E-08  0.1378258E-06 -0.1475463E-05  0.3632960E-05
  0.2200000E+01 -0.8080343E-10 -0.1067607E-05  0.1664862E+03  0.6407648E+02 -0.7975550E-07  0.2692273E-05  0.1349865E+02  0.3569127E+02  0.1254688E-08  0.8565077E-07 -0.1475463E-05  0.5962351E-06
  0.2300000E+01 -0.8080343E-10 -0.9553332E-06  0.1664862E+03  0.2142213E+02 -0.7975550E-07  0.3160199E-05  0.1349865E+02  0.3526745E+02  0.1254688E-08  0.2656780E-07 -0.1475463E-05  0.7867966E-06
  0.2400000E+01 -0.8080343E-10 -0.5919468E-06  0.1664862E+03 -0.2287690E+02 -0.7975550E-07  0.2923436E-05  0.1349865E+02  0.2697937E+02  0.1254688E-08 -0.3718305E-07 -0.1475463E-05  0.3488731E-05
  0.2500000E+01 -0.8080343E-10 -0.6745612E-07  0.1664862E+03 -0.6827135E+02 -0.7975550E-07  0.2302811E-05  0.1349865E+02  0.1503078E+02  0.1254688E-08 -0.1044985E-06 -0.1475463E-05  0.6253261E-05
  0.2600000E+01 -0.8080343E-10  0.4837545E-06  0.1664862E+03 -0.1057714E+03 -0.7975550E-07  0.1785303E-05  0.1349865E+02  0.2527714E+01  0.1254688E-08 -0.1676870E-06 -0.1475463E-05  0.5345385E-05
  0.2700000E+01 -0.8080343E-10  0.8939080E-06  0.1664862E+03 -0.1250292E+03 -0.7975550E-07  0.1805558E-05  0.1349865E+02 -0.8089097E+01  0.1254688E-08 -0.2135833E-06 -0.1475463E-05  0.2449125E-05
  0.2800000E+01 -0.8080343E-10  0.1061804E-05  0.1664862E+03 -0.1205177E+03 -0.7975550E-07  0.2206687E-05  0.1349865E+02 -0.1372009E+02  0.1254688E-08 -0.2306982E-06 -0.1475463E-05  0.1579989E-05
  0.2900000E+01 -0.8080343E-10  0.9642442E-06  0.1664862E+03 -0.9205243E+02 -0.7975550E-07  0.2403953E-05  0.1349865E+02 -0.1252877E+02  0.1254688E-08 -0.2093420E-06 -0.1475463E-05  0.1216135E-06
  0.3000000E+01 -0.8080343E-10  0.6547841E-06  0.1664862E+03 -0.5069778E+02 -0.7975550E-07  0.1965112E-05  0.1349865E+02 -0.6957398E+01  0.1254688E-08 -0.1449504E-06 -0.1475463E-05 -0.6073584E-05
  0.3100000E+01 -0.8080343E-10  0.2922208E-06  0.1664862E+03 -0.8770620E+01 -0.7975550E-07  0.7311254E-06  0.1349865E+02 -0.8636423E+00  0.1254688E-08 -0.4719541E-07 -0.1475463E-05 -0.1292379E-04
  0.3200000E+01 -0.8080343E-10 -0.4472813E-08  0.1664862E+03  0.3211028E+02 -0.7975550E-07 -0.1263701E-05  0.1349865E+02  0.4946542E+01  0.1254688E-08  0.6359652E-07 -0.1475463E-05 -0.1316775E-04
  0.3300000E+01 -0.8080343E-10 -0.2586354E-06  0.1664862E+03  0.7111912E+02 -0.7975550E-07 -0.3685030E-05  0.1349865E+02  0.1053231E+02  0.1254688E-08  0.1677526E-06 -0.1475463E-05 -0.6783268E-05
  0.3400000E+01 -0.8080343E-10 -0.5109366E-06  0.1664862E+03  0.9448484E+02 -0.7975550E-07 -0.5755938E-05  0.1349865E+02  0.1339053E+02  0.1254688E-08  0.2433123E-06 -0.1475463E-05 -0.2849266E-05
  0.3500000E+01 -0.8080343E-10 -0.7203423E-06  0.1664862E+03  0.9449299E+02 -0.7975550E-07 -0.6633275E-05  0.1349865E+02  0.1192620E+02  0.1254688E-08  0.2681008E-06 -0.1475463E-05 -0.7981095E-06
  0.3600000E+01 -0.8080343E-10 -0.8073613E-06  0.1664862E+03  0.6655376E+02 -0.7975550E-07 -0.6066389E-05  0.1349865E+02  0.7095199E+01  0.1254688E-08  0.2357533E-06 -0.1475463E-05  0.5963236E-05
  0.3700000E+01 -0.8080343E-10 -0.6987495E-06  0.1664862E+03  0.1006357E+02 -0.7975550E-07 -0.4360217E-05  0.1349865E+02  0.2045524E+00  0.1254688E-08  0.1552266E-06 -0.1475463E-05  0.1086122E-04
  0.3800000E+01 -0.8080343E-10 -0.3990395E-06  0.1664862E+03 -0.5167931E+02 -0.7975550E-07 -0.1956336E-05  0.1349865E+02 -0.6978138E+01  0.1254688E-08  0.4139115E-07 -0.1475463E-05  0.9439823E-05
  0.3900000E+01 -0.8080343E-10 -0.2437126E-07  0.1664862E+03 -0.8664132E+02 -0.7975550E-07  0.6690608E-06  0.1349865E+02 -0.1178163E+02  0.1254688E-08 -0.8478501E-07 -0.1475463E-05  0.7490516E-05
  0.4000000E+01 -0.8080343E-10  0.2983665E-06  0.1664862E+03 -0.7295963E+02 -0.7975550E-07  0.3008857E-05  0.1349865E+02 -0.1149835E+02  0.1254688E-08 -0.1964704E-06 -0.1475463E-05  0.7106831E-05
  0.4100000E+01 -0.8080343E-10  0.4719274E-06  0.1664862E+03 -0.1097644E+02 -0.7975550E-07  0.4652565E-05  0.1349865E+02 -0.5881470E+01  0.1254688E-08 -0.2664684E-06 -0.1475463E-05  0.3776865E-05
  0.4200000E+01 -0.8080343E-10  0.4427957E-06  0.1664862E+03  0.5702975E+02 -0.7975550E-07  0.5442093E-05  0.1349865E+02  0.7306888E+00  0.1254688E-08 -0.2740702E-06 -0.1475463E-05  0.4632933E-06
  0.4300000E+01 -0.8080343E-10  0.2727302E-06  0.1664862E+03  0.7438844E+02 -0.7975550E-07  0.5411282E-05  0.1349865E+02  0.3396832E+01  0.1254688E-08 -0.2151221E-06 -0.1475463E-05 -0.5120433E-06
  0.4400000E+01 -0.8080343E-10  0.7796432E-07  0.1664862E+03  0.2471001E+02 -0.7975550E-07  0.4730271E-05  0.1349865E+02  0.1294715E+01  0.1254688E-08 -0.1058944E-06 -0.1475463E-05 -0.4476058E-05
  0.4500000E+01 -0.8080343E-10 -0.7871267E-07  0.1664862E+03 -0.5211744E+02 -0.7975550E-07  0.3736136E-05  0.1349865E+02 -0.3034504E+01  0.1254688E-08  0.2269335E-07 -0.1475463E-05 -0.9411966E-05
  0.4600000E+01 -0.8080343E-10 -0.1438404E-06  0.1664862E+03 -0.8270548E+02 -0.7975550E-07  0.2712448E-05  0.1349865E+02 -0.4642228E+01  0.1254688E-08  0.1361637E-06 -0.1475463E-05 -0.1177942E-04
  0.4700000E+01 -0.8080343E-10 -0.4827634E-07  0.1664862E+03 -0.2457764E+02 -0.7975550E-07  0.1702765E-05  0.1349865E+02  0.1261322E+01  0.1254688E-08  0.2121534E-06 -0.1475463E-05 -0.1215723E-04
  0.4800000E+01 -0.8080343E-10  0.1649661E-06  0.1664862E+03  0.6951270E+02 -0.7975550E-07  0.6113021E-06  0.1349865E+02  0.1131333E+02  0.1254688E-08  0.2446404E-06 -0.1475463E-05 -0.8952318E-05
  0.4900000E+01 -0.8080343E-10  0.3598073E-06  0.1664862E+03  0.9643511E+02 -0.7975550E-07 -0.6150260E-06  0.1349865E+02  0.1420284E+02  0.1254688E-08  0.2345762E-06 -0.1475463E-05  0.1470135E-06
  0.5000000E+01 -0.8080343E-10  0.4662653E-06  0.1664862E+03  0.2061932E+02 -0.7975550E-07 -0.1875356E-05  0.1349865E+02  0.4307245E+01  0.1254688E-08  0.1868448E-06 -0.1475463E-05  0.1106982E-04