VARIABLES="w (rad/s)"
"abs(F   1   1)" "angle(F   1   1)"
"abs(F   1   2)" "angle(F   1   2)"
"abs(F   1   3)" "angle(F   1   3)"
"abs(F   1   4)" "angle(F   1   4)"
"abs(F   1   5)" "angle(F   1   5)"
"abs(F   1   6)" "angle(F   1   6)"
Zone t="Diffraction force - beta =   0.000 deg",I=   286,F=POINT
  0.1500000E+00  0.6923612E+02 -0.1570772E+01  0.2542221E-06 -0.9624713E+00  0.1024773E+02 -0.3025873E+01  0.6017382E-06  0.3123019E+01  0.1231717E+02  0.1570813E+01  0.2272429E-05 -0.1572026E+01
  0.1600000E+00  0.7382559E+02 -0.1570768E+01  0.2458762E-06 -0.2000559E+01  0.1158877E+02 -0.3025064E+01  0.1993030E-06  0.0000000E+00  0.1315661E+02  0.1570815E+01  0.3062192E-05 -0.1572317E+01
  0.1700000E+00  0.7913006E+02 -0.1570765E+01  0.1192931E-05 -0.2023271E+01  0.1301587E+02 -0.3024525E+01  0.6753058E-06 -0.5519251E-01  0.1406548E+02  0.1570818E+01  0.2086188E-05  0.1565886E+01
  0.1800000E+00  0.8308373E+02 -0.1570761E+01  0.3382432E-06  0.3009041E+01  0.1450535E+02 -0.3023603E+01  0.1020791E-05  0.3130644E+01  0.1480335E+02  0.1570820E+01  0.4619390E-05  0.1567167E+01
  0.1900000E+00  0.8857750E+02 -0.1570757E+01  0.1521762E-05  0.2271658E+00  0.1606341E+02 -0.3023036E+01  0.1557390E-05  0.3124848E+01  0.1573611E+02  0.1570823E+01  0.3144147E-05 -0.1569612E+01
  0.2000000E+00  0.9276434E+02 -0.1570753E+01  0.9689837E-06  0.8534130E+00  0.1773772E+02 -0.3022328E+01  0.1505059E-06 -0.2505517E+01  0.1651182E+02  0.1570826E+01  0.1862645E-07  0.0000000E+00
  0.2100000E+00  0.9761314E+02 -0.1570748E+01  0.1488332E-05  0.2350885E+01  0.1950798E+02 -0.3021960E+01  0.3735892E-06 -0.1602307E+00  0.1737228E+02  0.1570829E+01  0.9688781E-06  0.1545802E+01
  0.2200000E+00  0.1022161E+03 -0.1570743E+01  0.4400260E-06 -0.2064738E+01  0.2138716E+02 -0.3021745E+01  0.1689682E-05 -0.3123954E+01  0.1821377E+02  0.1570832E+01  0.1773238E-05 -0.1570796E+01
  0.2300000E+00  0.1067987E+03 -0.1570738E+01  0.4330480E-06 -0.1191887E+01  0.2325809E+02 -0.3021054E+01  0.8371548E-07 -0.3639790E+00  0.1900372E+02  0.1570836E+01  0.1944605E-05  0.1572712E+01
  0.2400000E+00  0.1116744E+03 -0.1570733E+01  0.5452812E-06  0.2351364E+01  0.2521871E+02 -0.3020489E+01  0.2451583E-05  0.3124877E+01  0.1986469E+02  0.1570839E+01  0.1370952E-05  0.1562644E+01
  0.2500000E+00  0.1160441E+03 -0.1570727E+01  0.1779301E-05 -0.4599023E+00  0.2726507E+02 -0.3019910E+01  0.2677289E-06  0.2771422E+01  0.2066256E+02  0.1570843E+01  0.3003425E-07 -0.5191461E+00
  0.2600000E+00  0.1206728E+03 -0.1570722E+01  0.1117984E-05  0.2773462E+01  0.2940024E+02 -0.3019438E+01  0.6243058E-06 -0.1376777E+00  0.2148976E+02  0.1570847E+01  0.2875963E-06  0.1281821E+01
  0.2700000E+00  0.1253531E+03 -0.1570715E+01  0.1851960E-05  0.1980442E+01  0.3163198E+02 -0.3019045E+01  0.1829497E-05  0.2036378E-01  0.2233202E+02  0.1570851E+01  0.1617394E-05 -0.1598439E+01
  0.2800000E+00  0.1302009E+03 -0.1570709E+01  0.4537520E-06 -0.2626520E+01  0.3396093E+02 -0.3018716E+01  0.3639363E-06  0.2742077E+01  0.2320039E+02  0.1570855E+01  0.1587603E-05  0.1542635E+01
  0.2900000E+00  0.1350462E+03 -0.1570703E+01  0.1844196E-05  0.2373336E+01  0.3638968E+02 -0.3018470E+01  0.6786575E-06  0.4392776E-01  0.2407511E+02  0.1570860E+01  0.1057982E-05  0.1570796E+01
  0.3000000E+00  0.1398346E+03 -0.1570696E+01  0.4267043E-06  0.1781890E+01  0.3883898E+02 -0.3018028E+01  0.2711983E-05 -0.3089370E+01  0.2491291E+02  0.1570865E+01  0.3062515E-05 -0.1556199E+01
  0.3100000E+00  0.1446028E+03 -0.1570689E+01  0.6608732E-05 -0.4509552E-02  0.4133080E+02 -0.3017486E+01  0.3466722E-06 -0.1510153E+00  0.2573948E+02  0.1570869E+01  0.4470572E-05  0.1580796E+01
  0.3200000E+00  0.1494168E+03 -0.1570681E+01  0.6590711E-06 -0.7454195E+00  0.4391050E+02 -0.3016987E+01  0.1382404E-05  0.3120033E+01  0.2659952E+02  0.1570874E+01  0.4513755E-06  0.1277758E+01
  0.3300000E+00  0.1541803E+03 -0.1570674E+01  0.2445425E-05  0.1607365E+01  0.4657094E+02 -0.3016504E+01  0.6200118E-07  0.2142134E+01  0.2744736E+02  0.1570880E+01  0.8463880E-05 -0.1568596E+01
  0.3400000E+00  0.1589623E+03 -0.1570666E+01  0.6336061E-06  0.8519663E+00  0.4931278E+02 -0.3016057E+01  0.3561502E-06  0.2866167E+01  0.2829138E+02  0.1570885E+01  0.2920744E-05 -0.1579725E+01
  0.3500000E+00  0.1636834E+03 -0.1570658E+01  0.5291843E-05  0.1526493E+00  0.5214943E+02 -0.3015652E+01  0.2160668E-06 -0.3141592E+01  0.2913585E+02  0.1570891E+01  0.4947198E-05 -0.1568537E+01
  0.3600000E+00  0.1684322E+03 -0.1570649E+01  0.2228658E-05  0.2728799E+01  0.5508154E+02 -0.3015287E+01  0.2929936E-05 -0.3560835E-01  0.2998963E+02  0.1570896E+01  0.1283131E-04  0.1555989E+01
  0.3700000E+00  0.1732031E+03 -0.1570640E+01  0.3787710E-05 -0.2545204E+00  0.5810278E+02 -0.3014949E+01  0.1720100E-06  0.3080528E+00  0.3084924E+02  0.1570902E+01  0.6169153E-05 -0.1575627E+01
  0.3800000E+00  0.1778952E+03 -0.1570631E+01  0.4822914E-05 -0.2179987E+00  0.6121799E+02 -0.3014657E+01  0.1833388E-05 -0.2438541E-01  0.3170918E+02  0.1570909E+01  0.5677348E-05 -0.1572109E+01
  0.3900000E+00  0.1826652E+03 -0.1570622E+01  0.4720823E-05  0.4297623E+00  0.6442613E+02 -0.3014390E+01  0.2221285E-05 -0.3111401E+01  0.3257190E+02  0.1570915E+01  0.6423248E-05 -0.1587036E+01
  0.4000000E+00  0.1873564E+03 -0.1570612E+01  0.5973043E-05 -0.3076684E+01  0.6759081E+02 -0.3013890E+01  0.3831076E-06 -0.2906048E+01  0.3339211E+02  0.1570922E+01  0.6817717E-05  0.1522693E+01
  0.4100000E+00  0.1920707E+03 -0.1570602E+01  0.1458259E-05 -0.3767113E+00  0.7083818E+02 -0.3013410E+01  0.2738420E-05  0.3087151E+01  0.3422412E+02  0.1570929E+01  0.1491618E-04  0.1566800E+01
  0.4200000E+00  0.1968430E+03 -0.1570592E+01  0.1824343E-05  0.2315754E+01  0.7416716E+02 -0.3012947E+01  0.5178288E-05  0.3134398E+01  0.3508807E+02  0.1570936E+01  0.2553376E-05 -0.1696599E+01
  0.4300000E+00  0.2016582E+03 -0.1570581E+01  0.1595538E-05  0.3104227E+01  0.7757800E+02 -0.3012496E+01  0.3226652E-05 -0.3123119E+01  0.3595782E+02  0.1570943E+01  0.1052023E-04  0.1569380E+01
  0.4400000E+00  0.2065876E+03 -0.1570570E+01  0.4991889E-05 -0.3141592E+01  0.8106783E+02 -0.3012054E+01  0.4075468E-05  0.0000000E+00  0.3683310E+02  0.1570950E+01  0.2995217E-05  0.1563334E+01
  0.4500000E+00  0.2115216E+03 -0.1570559E+01  0.3129421E-05  0.2359561E+01  0.8464088E+02 -0.3011623E+01  0.1407115E-05 -0.3046139E+01  0.3771033E+02  0.1570958E+01  0.6678751E-05 -0.1600921E+01
  0.4600000E+00  0.2164846E+03 -0.1570547E+01  0.3986833E-05 -0.2121472E+01  0.8830253E+02 -0.3011207E+01  0.8623029E-05  0.3116533E+01  0.3859516E+02  0.1570966E+01  0.1454085E-05  0.1751108E+01
  0.4700000E+00  0.2214736E+03 -0.1570535E+01  0.4365811E-05 -0.2893303E+01  0.9206003E+02 -0.3010815E+01  0.2577739E-05  0.7522013E-01  0.3948529E+02  0.1570974E+01  0.5334871E-05  0.1561020E+01
  0.4800000E+00  0.2264863E+03 -0.1570523E+01  0.4223527E-05 -0.2985724E+01  0.9591024E+02 -0.3010433E+01  0.4616968E-05 -0.3094777E+01  0.4037959E+02  0.1570983E+01  0.1068430E-04 -0.1576375E+01
  0.4900000E+00  0.2315248E+03 -0.1570510E+01  0.3167469E-05  0.1916352E+01  0.9984143E+02 -0.3010077E+01  0.5172656E-06  0.2295046E+01  0.4128125E+02  0.1570991E+01  0.1660728E-05 -0.1660644E+01
  0.5000000E+00  0.2365193E+03 -0.1570497E+01  0.2225417E-05 -0.1343214E+00  0.1038632E+03 -0.3009744E+01  0.1656443E-05 -0.3087591E+01  0.4218406E+02  0.1571000E+01  0.7495288E-05 -0.1569802E+01
  0.5100000E+00  0.2415084E+03 -0.1570483E+01  0.2787115E-05  0.2000964E+01  0.1079897E+03 -0.3009436E+01  0.2041799E-05 -0.1824615E-01  0.4308320E+02  0.1571009E+01  0.1775131E-05 -0.1524611E+01
  0.5200000E+00  0.2464845E+03 -0.1570470E+01  0.1660928E-05  0.2979394E+01  0.1120916E+03 -0.3009013E+01  0.6796731E-05 -0.3118570E+01  0.4396325E+02  0.1571019E+01  0.2101275E-05  0.1556613E+01
  0.5300000E+00  0.2513883E+03 -0.1570455E+01  0.4933162E-06  0.2007423E+01  0.1162127E+03 -0.3008531E+01  0.2518572E-05 -0.3126801E+01  0.4481863E+02  0.1571029E+01  0.2310112E-05 -0.1551444E+01
  0.5400000E+00  0.2563092E+03 -0.1570441E+01  0.3747161E-05 -0.8811496E+00  0.1204284E+03 -0.3008071E+01  0.5475670E-05  0.3091227E+01  0.4568736E+02  0.1571039E+01  0.1535109E-05 -0.1551381E+01
  0.5500000E+00  0.2612577E+03 -0.1570425E+01  0.1063513E-04  0.5125421E+00  0.1247158E+03 -0.3007605E+01  0.3414196E-05  0.3273939E-01  0.4657991E+02  0.1571049E+01  0.1564622E-05  0.1570796E+01
  0.5600000E+00  0.2662192E+03 -0.1570410E+01  0.1463048E-05 -0.1631945E+01  0.1290765E+03 -0.3007139E+01  0.2175774E-05  0.3127895E+01  0.4748017E+02  0.1571060E+01  0.1514064E-05  0.1748889E+01
  0.5700000E+00  0.2712024E+03 -0.1570394E+01  0.4352058E-05 -0.2054505E-01  0.1335189E+03 -0.3006678E+01  0.9194018E-05 -0.3140782E+01  0.4838123E+02  0.1571071E+01  0.5336301E-05  0.1595931E+01
  0.5800000E+00  0.2761393E+03 -0.1570377E+01  0.1609196E-04 -0.2930758E+01  0.1380367E+03 -0.3006214E+01  0.3209601E-05 -0.3081201E+01  0.4926837E+02  0.1571082E+01  0.1250335E-04  0.1556495E+01
  0.5900000E+00  0.2810653E+03 -0.1570360E+01  0.7488986E-05 -0.2779562E+01  0.1426447E+03 -0.3005758E+01  0.7819348E-05 -0.3088208E+01  0.5015818E+02  0.1571094E+01  0.1035760E-04 -0.1586622E+01
  0.6000000E+00  0.2860254E+03 -0.1570343E+01  0.1258932E-04  0.2643002E+01  0.1473345E+03 -0.3005305E+01  0.6914191E-05  0.6577969E-01  0.5105820E+02  0.1571105E+01  0.2446016E-05 -0.1613453E+01
  0.6100000E+00  0.2910108E+03 -0.1570325E+01  0.4807328E-05  0.3021452E+00  0.1521100E+03 -0.3004852E+01  0.9358689E-05 -0.3128855E+01  0.5196249E+02  0.1571118E+01  0.9926690E-05 -0.1548278E+01
  0.6200000E+00  0.2960226E+03 -0.1570306E+01  0.1050569E-04 -0.2921385E+01  0.1569778E+03 -0.3004404E+01  0.2919487E-05 -0.3044463E+01  0.5287343E+02  0.1571130E+01  0.8550982E-06 -0.1964247E+01
  0.6300000E+00  0.3010689E+03 -0.1570287E+01  0.2293037E-05 -0.1083897E+01  0.1619496E+03 -0.3003961E+01  0.3697921E-05  0.3627440E-01  0.5379126E+02  0.1571143E+01  0.1373445E-04  0.1531728E+01
  0.6400000E+00  0.3061478E+03 -0.1570268E+01  0.2719207E-05 -0.8086498E+00  0.1669796E+03 -0.3003518E+01  0.9238964E-05 -0.7257937E-02  0.5471509E+02  0.1571156E+01  0.1990128E-05 -0.1766724E+01
  0.6500000E+00  0.3112578E+03 -0.1570248E+01  0.1375099E-04  0.7810167E-01  0.1721171E+03 -0.3003125E+01  0.5209550E-06 -0.1280709E+01  0.5565617E+02  0.1571170E+01  0.9258419E-05  0.1602991E+01
  0.6600000E+00  0.3163574E+03 -0.1570228E+01  0.1157516E-04  0.4302499E+00  0.1773367E+03 -0.3002726E+01  0.1028634E-04 -0.2970141E-01  0.5659202E+02  0.1571184E+01  0.8547151E-05  0.1525452E+01
  0.6700000E+00  0.3215303E+03 -0.1570207E+01  0.1388523E-04 -0.3781150E+00  0.1826879E+03 -0.3002358E+01  0.8732538E-05 -0.1023855E-01  0.5753791E+02  0.1571198E+01  0.6056492E-05 -0.1524032E+01
  0.6799999E+00  0.3267927E+03 -0.1570186E+01  0.2951634E-05 -0.2854971E+01  0.1879474E+03 -0.3001881E+01  0.1215295E-04 -0.3104187E+01  0.5847701E+02  0.1571213E+01  0.2473997E-05  0.1588867E+01
  0.6899999E+00  0.3320663E+03 -0.1570164E+01  0.3677781E-05  0.3060470E+01  0.1932305E+03 -0.3001376E+01  0.5573438E-05 -0.3129561E+01  0.5940200E+02  0.1571228E+01  0.2306704E-04  0.1572734E+01
  0.7000000E+00  0.3373490E+03 -0.1570141E+01  0.7277688E-05 -0.4764674E+00  0.1984968E+03 -0.3000801E+01  0.1590520E-05  0.2876162E+01  0.6032709E+02  0.1571243E+01  0.8912687E-05  0.1550732E+01
  0.7099999E+00  0.3426812E+03 -0.1570118E+01  0.7042749E-05 -0.1710898E+01  0.2039323E+03 -0.3000292E+01  0.3289387E-05  0.2957080E+01  0.6127961E+02  0.1571259E+01  0.7452070E-05  0.1590794E+01
  0.7200000E+00  0.3480470E+03 -0.1570095E+01  0.7194468E-05  0.1413112E+00  0.2094396E+03 -0.2999776E+01  0.6869585E-05 -0.6620743E-01  0.6224904E+02  0.1571275E+01  0.1457346E-04  0.1566706E+01
  0.7300000E+00  0.3534331E+03 -0.1570071E+01  0.1301434E-04  0.2872730E+01  0.2150273E+03 -0.2999260E+01  0.3312753E-05 -0.2997151E+01  0.6322297E+02  0.1571292E+01  0.1004352E-04  0.1493569E+01
  0.7400000E+00  0.3588466E+03 -0.1570045E+01  0.6598708E-05  0.2000528E+00  0.2207776E+03 -0.2998798E+01  0.1709174E-05  0.2872815E+00  0.6419788E+02  0.1571309E+01  0.1275553E-04 -0.1575469E+01
  0.7500000E+00  0.3642907E+03 -0.1570020E+01  0.2665189E-04  0.5369973E-01  0.2265055E+03 -0.2998264E+01  0.1359015E-04 -0.6578852E-02  0.6517813E+02  0.1571326E+01  0.1922287E-04  0.1576998E+01
  0.7600000E+00  0.3696538E+03 -0.1569994E+01  0.2251959E-04 -0.9808846E-01  0.2323119E+03 -0.2997724E+01  0.1941316E-04 -0.3493202E-01  0.6613324E+02  0.1571345E+01  0.8255580E-05 -0.1579821E+01
  0.7700000E+00  0.3750499E+03 -0.1569966E+01  0.5893932E-05  0.1075485E+01  0.2382065E+03 -0.2997185E+01  0.1032195E-04  0.3096825E+01  0.6710558E+02  0.1571363E+01  0.1012402E-05  0.7437556E+00
  0.7800000E+00  0.3804766E+03 -0.1569939E+01  0.6861010E-05  0.8838443E+00  0.2441835E+03 -0.2996641E+01  0.3960038E-06 -0.2084652E+00  0.6808451E+02  0.1571383E+01  0.1210209E-05 -0.1397551E+01
  0.7900000E+00  0.3859349E+03 -0.1569910E+01  0.1740384E-04  0.8228799E-01  0.2502457E+03 -0.2996091E+01  0.1801993E-04 -0.3095268E+01  0.6906912E+02  0.1571402E+01  0.1079651E-04 -0.1532142E+01
  0.8000000E+00  0.3914062E+03 -0.1569880E+01  0.1233831E-04  0.3136762E+01  0.2563956E+03 -0.2995536E+01  0.4321337E-05 -0.1175116E+00  0.7005954E+02  0.1571422E+01  0.6663002E-05  0.1499170E+01
  0.8099999E+00  0.3968798E+03 -0.1569850E+01  0.2020589E-04 -0.1719381E+00  0.2626364E+03 -0.2994973E+01  0.6945539E-05  0.3120137E+01  0.7105350E+02  0.1571443E+01  0.3996290E-05  0.1533500E+01
  0.8200001E+00  0.4023834E+03 -0.1569820E+01  0.2682302E-04 -0.2992153E+01  0.2689800E+03 -0.2994391E+01  0.4327113E-05  0.5167808E-01  0.7205284E+02  0.1571464E+01  0.1327171E-04  0.1608980E+01
  0.8299999E+00  0.4079152E+03 -0.1569788E+01  0.9117758E-06  0.1373401E+01  0.2753961E+03 -0.2993836E+01  0.1052074E-04  0.9914691E-02  0.7305742E+02  0.1571486E+01  0.1833252E-04  0.1549661E+01
  0.8400000E+00  0.4134487E+03 -0.1569755E+01  0.2883904E-05  0.2826378E+01  0.2818884E+03 -0.2993318E+01  0.3220203E-05 -0.2903348E+01  0.7407527E+02  0.1571508E+01  0.1040139E-04  0.1579392E+01
  0.8500000E+00  0.4189719E+03 -0.1569722E+01  0.3155569E-04 -0.3101916E+01  0.2884795E+03 -0.2992800E+01  0.1327793E-05 -0.8012698E+00  0.7509667E+02  0.1571531E+01  0.3156574E-04 -0.1588736E+01
  0.8600000E+00  0.4244935E+03 -0.1569688E+01  0.1529472E-04 -0.6832618E+00  0.2951759E+03 -0.2992282E+01  0.4046454E-05 -0.3034595E+01  0.7611591E+02  0.1571555E+01  0.1003130E-04  0.1630250E+01
  0.8700000E+00  0.4300501E+03 -0.1569653E+01  0.3499788E-04  0.2384556E-01  0.3019885E+03 -0.2991764E+01  0.1329588E-04  0.3116934E+01  0.7714261E+02  0.1571579E+01  0.1195608E-04  0.1600713E+01
  0.8800000E+00  0.4355965E+03 -0.1569616E+01  0.1092896E-04 -0.2423332E+00  0.3086708E+03 -0.2991193E+01  0.1228149E-04 -0.2184119E-01  0.7814883E+02  0.1571604E+01  0.2023488E-05 -0.1408069E+01
  0.8900000E+00  0.4411324E+03 -0.1569579E+01  0.2082327E-04 -0.1580900E+00  0.3153139E+03 -0.2990586E+01  0.1911505E-04 -0.3106506E+01  0.7913982E+02  0.1571629E+01  0.3093655E-04 -0.1581393E+01
  0.9000000E+00  0.4466693E+03 -0.1569542E+01  0.6408539E-05  0.8117079E+00  0.3220294E+03 -0.2989969E+01  0.7729280E-05  0.3089516E+01  0.8012751E+02  0.1571655E+01  0.1640438E-04 -0.1530818E+01
  0.9100000E+00  0.4522651E+03 -0.1569503E+01  0.1907321E-04  0.2777336E+01  0.3288306E+03 -0.2989351E+01  0.7390991E-05  0.3139576E+01  0.8113461E+02  0.1571682E+01  0.6617190E-06  0.1355277E+00
  0.9200000E+00  0.4579037E+03 -0.1569463E+01  0.8560895E-05 -0.8198673E+00  0.3356943E+03 -0.2988719E+01  0.2726912E-05 -0.2960273E+01  0.8216500E+02  0.1571710E+01  0.9851235E-05  0.1473837E+01
  0.9299999E+00  0.4635969E+03 -0.1569422E+01  0.9038706E-05  0.2290867E+01  0.3426659E+03 -0.2988097E+01  0.8965497E-06  0.2691675E+00  0.8321385E+02  0.1571737E+01  0.8903116E-05  0.1500443E+01
  0.9399999E+00  0.4693034E+03 -0.1569380E+01  0.2081901E-05  0.2910502E+01  0.3496887E+03 -0.2987456E+01  0.2733054E-05 -0.2819842E+01  0.8426773E+02  0.1571766E+01  0.8059035E-05  0.1626295E+01
  0.9500000E+00  0.4750539E+03 -0.1569337E+01  0.6675987E-05 -0.2094372E+01  0.3567776E+03 -0.2986804E+01  0.4053554E-05  0.3126888E+01  0.8532709E+02  0.1571796E+01  0.7264068E-05 -0.1492766E+01
  0.9599999E+00  0.4808120E+03 -0.1569292E+01  0.2383232E-04  0.2794531E+01  0.3639446E+03 -0.2986142E+01  0.8413550E-06  0.2741352E+01  0.8638837E+02  0.1571827E+01  0.1245969E-04  0.1642615E+01
  0.9700000E+00  0.4866558E+03 -0.1569247E+01  0.2201510E-04 -0.6722040E+00  0.3711561E+03 -0.2985464E+01  0.7330402E-06 -0.1107149E+01  0.8745817E+02  0.1571858E+01  0.2425734E-05  0.1385448E+01
  0.9800000E+00  0.4924370E+03 -0.1569200E+01  0.3647103E-05 -0.1373401E+01  0.3785213E+03 -0.2984807E+01  0.6781273E-05 -0.2808029E+01  0.8850852E+02  0.1571890E+01  0.1532407E-04 -0.1543566E+01
  0.9900000E+00  0.4982953E+03 -0.1569151E+01  0.2166151E-04 -0.2508548E+01  0.3859316E+03 -0.2984122E+01  0.2473851E-04 -0.3127136E+01  0.8958730E+02  0.1571923E+01  0.3174892E-05 -0.1740575E+01
  0.1000000E+01  0.5042232E+03 -0.1569102E+01  0.1389210E-04 -0.4387008E+00  0.3934182E+03 -0.2983423E+01  0.1569233E-04 -0.4559576E-01  0.9067636E+02  0.1571958E+01  0.1943852E-04  0.1598397E+01
  0.1010000E+01  0.5102396E+03 -0.1569051E+01  0.1060309E-04  0.2095229E+00  0.4010405E+03 -0.2982735E+01  0.1135477E-04  0.3936987E-02  0.9177793E+02  0.1571993E+01  0.1052229E-04  0.1590624E+01
  0.1020000E+01  0.5164161E+03 -0.1568999E+01  0.8664228E-05  0.4482642E+00  0.4086717E+03 -0.2982002E+01  0.6428690E-05  0.3060376E+01  0.9290160E+02  0.1572029E+01  0.8437426E-05  0.1599057E+01
  0.1030000E+01  0.5226172E+03 -0.1568946E+01  0.2983836E-04 -0.1020539E+00  0.4164163E+03 -0.2981266E+01  0.1069028E-04 -0.3078826E+01  0.9403468E+02  0.1572066E+01  0.4347565E-05 -0.1680696E+01
  0.1040000E+01  0.5288597E+03 -0.1568891E+01  0.4552640E-05 -0.2337678E+01  0.4242484E+03 -0.2980510E+01  0.2536397E-04  0.1290187E+00  0.9517609E+02  0.1572104E+01  0.1013437E-04 -0.1553151E+01
  0.1050000E+01  0.5351543E+03 -0.1568835E+01  0.3398641E-04  0.3101038E+00  0.4321841E+03 -0.2979720E+01  0.1530576E-04 -0.1180756E+00  0.9632699E+02  0.1572142E+01  0.1314346E-05  0.3073516E+01
  0.1060000E+01  0.5415031E+03 -0.1568778E+01  0.6721596E-05 -0.1071450E+01  0.4401930E+03 -0.2978944E+01  0.2777968E-04  0.6763859E-01  0.9748671E+02  0.1572182E+01  0.2396136E-04 -0.1565821E+01
  0.1070000E+01  0.5478686E+03 -0.1568719E+01  0.1301430E-04 -0.2427502E+01  0.4482307E+03 -0.2978223E+01  0.1340763E-04 -0.1315233E+00  0.9865831E+02  0.1572222E+01  0.1820871E-05  0.1939145E+01
  0.1080000E+01  0.5542468E+03 -0.1568659E+01  0.2665227E-04 -0.2938934E+01  0.4564037E+03 -0.2977510E+01  0.1486100E-04 -0.3090432E+01  0.9984305E+02  0.1572264E+01  0.7460647E-05  0.1518843E+01
  0.1090000E+01  0.5605845E+03 -0.1568596E+01  0.3731841E-05  0.2677945E+01  0.4646871E+03 -0.2976787E+01  0.1625484E-04 -0.1120745E+00  0.1010176E+03  0.1572308E+01  0.2306823E-04 -0.1581132E+01
  0.1100000E+01  0.5669800E+03 -0.1568532E+01  0.3288043E-04 -0.2860554E+01  0.4730894E+03 -0.2976057E+01  0.1385459E-04 -0.2924790E+01  0.1022028E+03  0.1572352E+01  0.1047771E-04  0.1713498E+01
  0.1110000E+01  0.5734048E+03 -0.1568466E+01  0.1299450E-04 -0.5994525E+00  0.4816136E+03 -0.2975311E+01  0.2402993E-04 -0.7572557E-01  0.1033951E+03  0.1572398E+01  0.7431483E-05  0.1466339E+01
  0.1120000E+01  0.5798239E+03 -0.1568399E+01  0.1551199E-04 -0.2889158E+01  0.4899142E+03 -0.2974550E+01  0.5563703E-05 -0.8581027E-01  0.1045662E+03  0.1572445E+01  0.8968866E-05  0.1430779E+01
  0.1130000E+01  0.5864321E+03 -0.1568331E+01  0.2387053E-04  0.2711452E+01  0.4981124E+03 -0.2973796E+01  0.1852605E-05 -0.6885591E+00  0.1057466E+03  0.1572492E+01  0.5057621E-05 -0.1712693E+01
  0.1140000E+01  0.5928755E+03 -0.1568260E+01  0.5134102E-04 -0.8834750E-01  0.5063633E+03 -0.2973010E+01  0.2445633E-04 -0.7990286E-01  0.1069002E+03  0.1572541E+01  0.2215106E-04  0.1492683E+01
  0.1150000E+01  0.5993646E+03 -0.1568187E+01  0.2271563E-04  0.7616815E-01  0.5146797E+03 -0.2972208E+01  0.5187745E-05 -0.2872773E-01  0.1080596E+03  0.1572592E+01  0.1862109E-05 -0.2446854E+01
  0.1160000E+01  0.6059225E+03 -0.1568113E+01  0.4037747E-04 -0.3843441E+00  0.5230853E+03 -0.2971401E+01  0.7484834E-05 -0.9570671E-01  0.1092527E+03  0.1572643E+01  0.1042114E-04 -0.1766509E+01
  0.1170000E+01  0.6125362E+03 -0.1568037E+01  0.5754241E-05 -0.2444202E+01  0.5316013E+03 -0.2970596E+01  0.3292730E-04 -0.3102211E+01  0.1104679E+03  0.1572697E+01  0.3288579E-04 -0.1541793E+01
  0.1180000E+01  0.6192068E+03 -0.1567958E+01  0.2481852E-04  0.2744585E+01  0.5401439E+03 -0.2969766E+01  0.1240582E-04  0.3105551E+01  0.1117020E+03  0.1572751E+01  0.2241848E-04  0.1647976E+01
  0.1190000E+01  0.6259181E+03 -0.1567878E+01  0.1449668E-04 -0.3048471E+00  0.5487409E+03 -0.2968921E+01  0.9049129E-05  0.1039288E+00  0.1129441E+03  0.1572807E+01  0.7405442E-05  0.1847990E+01
  0.1200000E+01  0.6326662E+03 -0.1567795E+01  0.1009855E-04  0.7143881E+00  0.5573986E+03 -0.2968062E+01  0.1735519E-04 -0.3107242E+01  0.1141906E+03  0.1572865E+01  0.9597088E-06 -0.6310794E+00
  0.1210000E+01  0.6394539E+03 -0.1567710E+01  0.4968053E-04 -0.3081569E+01  0.5661357E+03 -0.2967193E+01  0.1156468E-04 -0.1546269E-01  0.1154427E+03  0.1572924E+01  0.3574273E-04 -0.1547448E+01
  0.1220000E+01  0.6462899E+03 -0.1567622E+01  0.1913634E-04  0.2369410E+01  0.5749380E+03 -0.2966310E+01  0.4298154E-04 -0.1750861E-01  0.1167038E+03  0.1572985E+01  0.1400912E-04  0.1553777E+01
  0.1230000E+01  0.6530672E+03 -0.1567531E+01  0.1339620E-04  0.1445889E+01  0.5838151E+03 -0.2965414E+01  0.2951693E-04  0.6997665E-01  0.1179450E+03  0.1573048E+01  0.4841203E-05  0.1496857E+01
  0.1240000E+01  0.6598735E+03 -0.1567438E+01  0.2489677E-04  0.2680086E+01  0.5927358E+03 -0.2964493E+01  0.1712243E-04 -0.3098501E+01  0.1191938E+03  0.1573113E+01  0.1062636E-04 -0.1626917E+01
  0.1250000E+01  0.6667325E+03 -0.1567342E+01  0.5787485E-05 -0.2576443E+01  0.6017624E+03 -0.2963565E+01  0.3290176E-04  0.2264493E-03  0.1204685E+03  0.1573180E+01  0.6621818E-05 -0.2141323E+01
  0.1260000E+01  0.6736476E+03 -0.1567243E+01  0.4649228E-04  0.1014546E+00  0.6108640E+03 -0.2962620E+01  0.7964807E-06  0.1874797E+01  0.1217535E+03  0.1573249E+01  0.1486177E-04 -0.1518635E+01
  0.1270000E+01  0.6806279E+03 -0.1567141E+01  0.7297371E-05  0.1920963E+01  0.6200173E+03 -0.2961648E+01  0.2344254E-04  0.3102490E+01  0.1230501E+03  0.1573320E+01  0.2512513E-04  0.1582658E+01
  0.1280000E+01  0.6876404E+03 -0.1567036E+01  0.3163182E-04  0.2010910E+00  0.6292744E+03 -0.2960664E+01  0.3159089E-04  0.3136404E+01  0.1243538E+03  0.1573393E+01  0.1816370E-04  0.1610185E+01
  0.1290000E+01  0.6947088E+03 -0.1566928E+01  0.1874554E-04  0.2972262E+01  0.6386238E+03 -0.2959663E+01  0.5161793E-04  0.3138129E+01  0.1256715E+03  0.1573468E+01  0.1064026E-04  0.1464160E+01
  0.1300000E+01  0.7018225E+03 -0.1566817E+01  0.3005570E-04  0.2337964E+01  0.6480154E+03 -0.2958625E+01  0.2750586E-05  0.2337040E+01  0.1269999E+03  0.1573545E+01  0.1754038E-05  0.1400061E+01
  0.1310000E+01  0.7089745E+03 -0.1566704E+01  0.3409720E-04  0.1191512E+00  0.6575864E+03 -0.2957579E+01  0.2332332E-04  0.3060043E+01  0.1283370E+03  0.1573623E+01  0.1019675E-04 -0.1600028E+01
  0.1320000E+01  0.7162285E+03 -0.1566588E+01  0.2131789E-04  0.1246393E+01  0.6671554E+03 -0.2956444E+01  0.2521072E-04 -0.3023103E+01  0.1296922E+03  0.1573704E+01  0.2344168E-04 -0.1608946E+01
  0.1330000E+01  0.7235338E+03 -0.1566469E+01  0.1135746E-04 -0.3649131E+00  0.6768342E+03 -0.2955392E+01  0.1575318E-05 -0.1722726E+01  0.1310578E+03  0.1573787E+01  0.9731816E-05  0.1214176E+01
  0.1340000E+01  0.7308959E+03 -0.1566346E+01  0.4661510E-04  0.7908230E+00  0.6865626E+03 -0.2954387E+01  0.3190967E-04  0.3105160E+01  0.1324439E+03  0.1573873E+01  0.7660066E-05  0.1204740E+01
  0.1350000E+01  0.7382758E+03 -0.1566219E+01  0.5769742E-04 -0.3139527E+01  0.6964472E+03 -0.2953383E+01  0.2766161E-04 -0.3122468E+01  0.1338469E+03  0.1573961E+01  0.6434724E-04  0.1615273E+01
  0.1360000E+01  0.7456445E+03 -0.1566088E+01  0.4026099E-04 -0.2816097E+01  0.7063815E+03 -0.2952343E+01  0.1604207E-04  0.2804567E+01  0.1352457E+03  0.1574053E+01  0.3398020E-04  0.1616419E+01
  0.1370000E+01  0.7530691E+03 -0.1565954E+01  0.4493732E-05  0.1951303E+01  0.7164885E+03 -0.2951296E+01  0.3188887E-04  0.3136686E+01  0.1366557E+03  0.1574147E+01  0.1513019E-04 -0.1745012E+01
  0.1380000E+01  0.7605433E+03 -0.1565816E+01  0.5451033E-04  0.3203674E+00  0.7266852E+03 -0.2950208E+01  0.6223353E-05 -0.3052884E+01  0.1380776E+03  0.1574243E+01  0.9563528E-05 -0.1645656E+01
  0.1390000E+01  0.7681090E+03 -0.1565675E+01  0.2718390E-04 -0.1948045E+01  0.7369268E+03 -0.2949090E+01  0.1247164E-04  0.4962476E+00  0.1395112E+03  0.1574342E+01  0.4791029E-04 -0.1598170E+01
  0.1400000E+01  0.7756769E+03 -0.1565530E+01  0.2378345E-04  0.1231116E+00  0.7465308E+03 -0.2948088E+01  0.3546400E-04 -0.1295667E+00  0.1409018E+03  0.1574443E+01  0.5226889E-05 -0.2372322E+01
  0.1410000E+01  0.7832799E+03 -0.1565383E+01  0.8870485E-05  0.2422763E+01  0.7561820E+03 -0.2947044E+01  0.5097591E-05  0.2084141E+01  0.1422901E+03  0.1574546E+01  0.3554482E-05 -0.2565217E+01
  0.1420000E+01  0.7909431E+03 -0.1565231E+01  0.6662330E-04  0.2973502E+01  0.7658985E+03 -0.2945978E+01  0.1651426E-04  0.8763727E-01  0.1436847E+03  0.1574652E+01  0.1470194E-04 -0.1643837E+01
  0.1430000E+01  0.7987067E+03 -0.1565077E+01  0.7202057E-05  0.2924719E+01  0.7756533E+03 -0.2944890E+01  0.3106295E-04  0.2398772E-01  0.1450926E+03  0.1574760E+01  0.2450239E-04  0.1682931E+01
  0.1440000E+01  0.8066385E+03 -0.1564918E+01  0.2519578E-04 -0.2627141E+01  0.7855156E+03 -0.2943796E+01  0.1945828E-04 -0.2995959E+01  0.1465564E+03  0.1574871E+01  0.1225644E-04  0.1771530E+01
  0.1450000E+01  0.8147748E+03 -0.1564756E+01  0.3675824E-04 -0.1235505E+00  0.7955453E+03 -0.2942718E+01  0.2587563E-04  0.2361312E-01  0.1480604E+03  0.1574986E+01  0.1360567E-04  0.1619005E+01
  0.1460000E+01  0.8230739E+03 -0.1564589E+01  0.3239648E-04 -0.1785873E+01  0.8054244E+03 -0.2941569E+01  0.3398878E-04  0.2754288E+01  0.1496029E+03  0.1575103E+01  0.7227908E-05  0.1636816E+01
  0.1470000E+01  0.8314280E+03 -0.1564417E+01  0.8499254E-05  0.3050298E+01  0.8154595E+03 -0.2940435E+01  0.3178619E-04  0.1536651E+00  0.1511589E+03  0.1575223E+01  0.5831516E-05 -0.2283857E+01
  0.1480000E+01  0.8398536E+03 -0.1564241E+01  0.2076091E-04 -0.2307453E+01  0.8258297E+03 -0.2939367E+01  0.8265781E-05  0.2058633E+01  0.1527268E+03  0.1575347E+01  0.1324256E-04 -0.1430809E+01
  0.1490000E+01  0.8483516E+03 -0.1564060E+01  0.3755093E-05  0.1570796E+01  0.8356328E+03 -0.2938112E+01  0.2916304E-04 -0.9646558E-01  0.1543038E+03  0.1575475E+01  0.5900963E-04 -0.1538468E+01
  0.1500000E+01  0.8569324E+03 -0.1563874E+01  0.3965819E-04 -0.3274539E+00  0.8459850E+03 -0.2936978E+01  0.2639036E-04 -0.3083119E+01  0.1558942E+03  0.1575606E+01  0.1085214E-04 -0.1598262E+01
  0.1510000E+01  0.8655869E+03 -0.1563682E+01  0.3990508E-04  0.2864729E+01  0.8563850E+03 -0.2935825E+01  0.3617474E-04  0.5481303E-01  0.1574946E+03  0.1575742E+01  0.7851993E-05 -0.1301881E+01
  0.1520000E+01  0.8741421E+03 -0.1563484E+01  0.3064050E-04 -0.8960318E-01  0.8662358E+03 -0.2934490E+01  0.6200866E-04 -0.6697577E-01  0.1590612E+03  0.1575882E+01  0.3254768E-04  0.1633101E+01
  0.1530000E+01  0.8827748E+03 -0.1563280E+01  0.4468632E-04  0.2178009E+00  0.8767861E+03 -0.2933308E+01  0.2585629E-04 -0.1898794E+00  0.1606517E+03  0.1576026E+01  0.1334625E-04 -0.1732274E+01
  0.1540000E+01  0.8915107E+03 -0.1563069E+01  0.4417509E-04 -0.5534882E-01  0.8871926E+03 -0.2932051E+01  0.2509754E-04  0.1552901E+00  0.1622754E+03  0.1576174E+01  0.1639778E-04 -0.1694700E+01
  0.1550000E+01  0.9003361E+03 -0.1562853E+01  0.6214753E-04 -0.2431178E+00  0.8974933E+03 -0.2930729E+01  0.1729923E-04  0.3101528E+01  0.1639154E+03  0.1576327E+01  0.2199389E-04 -0.1368883E+01
  0.1560000E+01  0.9092333E+03 -0.1562630E+01  0.2878281E-04 -0.2928764E+01  0.9081409E+03 -0.2929458E+01  0.3388502E-04 -0.3099804E+01  0.1655693E+03  0.1576485E+01  0.3500473E-05 -0.8215270E+00
  0.1570000E+01  0.9182137E+03 -0.1562401E+01  0.5126499E-04 -0.1395258E-01  0.9185785E+03 -0.2928093E+01  0.5500047E-04  0.3064301E+01  0.1672387E+03  0.1576647E+01  0.1408600E-04 -0.1379210E+01
  0.1580000E+01  0.9272679E+03 -0.1562164E+01  0.6152505E-04  0.1262776E+00  0.9291650E+03 -0.2926721E+01  0.3349910E-04  0.3132807E+01  0.1689250E+03  0.1576814E+01  0.2410770E-04  0.1749765E+01
  0.1590000E+01  0.9363550E+03 -0.1561922E+01  0.4771723E-05 -0.2689118E+01  0.9398561E+03 -0.2925331E+01  0.3146629E-04 -0.1218880E+00  0.1706227E+03  0.1576985E+01  0.7498750E-04  0.1640801E+01
  0.1600000E+01  0.9455328E+03 -0.1561673E+01  0.6994227E-04 -0.2932999E+01  0.9507531E+03 -0.2923940E+01  0.1989918E-04  0.3036186E+01  0.1723365E+03  0.1577160E+01  0.3470429E-04  0.1636108E+01
  0.1610000E+01  0.9548112E+03 -0.1561418E+01  0.3355106E-04 -0.1014364E+00  0.9613622E+03 -0.2922402E+01  0.1912512E-04  0.7350017E-01  0.1740686E+03  0.1577340E+01  0.1347276E-04  0.1588494E+01
  0.1620000E+01  0.9641595E+03 -0.1561156E+01  0.6881921E-04 -0.3307889E+00  0.9724010E+03 -0.2920910E+01  0.1588328E-04  0.1364573E+00  0.1758157E+03  0.1577526E+01  0.1913161E-05 -0.1253972E+01
  0.1630000E+01  0.9736190E+03 -0.1560886E+01  0.2291332E-04 -0.9741359E+00  0.9833572E+03 -0.2919528E+01  0.2958868E-04  0.3100663E+01  0.1775841E+03  0.1577718E+01  0.3276338E-04  0.1545324E+01
  0.1640000E+01  0.9831099E+03 -0.1560607E+01  0.5719888E-04  0.7713976E+00  0.9943889E+03 -0.2918123E+01  0.5088086E-04  0.3079612E+01  0.1793880E+03  0.1577915E+01  0.9577309E-05 -0.1994076E+01
  0.1650000E+01  0.9926374E+03 -0.1560319E+01  0.5316040E-04 -0.4154921E+00  0.1005580E+04 -0.2916705E+01  0.4119782E-04 -0.3019032E+01  0.1812031E+03  0.1578118E+01  0.4527180E-04 -0.1652516E+01