VARIABLES="w (rad/s)"
"abs(F   1   1)" "angle(F   1   1)"
"abs(F   1   2)" "angle(F   1   2)"
"abs(F   1   3)" "angle(F   1   3)"
"abs(F   1   4)" "angle(F   1   4)"
"abs(F   1   5)" "angle(F   1   5)"
"abs(F   1   6)" "angle(F   1   6)"
Zone t="Diffraction force - beta =   0.000 deg",I=   286,F=POINT
  0.1500000E+00  0.1770603E+03 -0.1570787E+01  0.2742622E-02 -0.3141473E+01  0.1003391E+05 -0.1179221E-03  0.4416346E-05  0.3139062E+01  0.2137742E+02  0.1570841E+01  0.3838235E-04 -0.1114584E+00
  0.1600000E+00  0.1888595E+03 -0.1570780E+01  0.8469655E-03 -0.3140906E+01  0.1003106E+05 -0.1343198E-03  0.2107126E-05 -0.2121698E-01  0.2282333E+02  0.1570829E+01  0.1719070E-04 -0.3093466E+01
  0.1700000E+00  0.2013775E+03 -0.1570781E+01  0.9923445E-03 -0.3139791E+01  0.1002801E+05 -0.1516013E-03  0.1974838E-04 -0.7922868E-02  0.2433915E+02  0.1570803E+01  0.2309911E-04  0.3003100E+01
  0.1800000E+00  0.2125493E+03 -0.1570781E+01  0.7670895E-03  0.3141068E+01  0.1002481E+05 -0.1703288E-03  0.1229571E-03 -0.1363387E-02  0.2568451E+02  0.1570809E+01  0.5340896E-04 -0.3114247E+01
  0.1900000E+00  0.2252657E+03 -0.1570778E+01  0.1481586E-02 -0.5028794E-04  0.1002142E+05 -0.1895905E-03  0.3468222E-05  0.3095389E+01  0.2722532E+02  0.1570786E+01  0.9702030E-05  0.2954665E+01
  0.2000000E+00  0.2366802E+03 -0.1570786E+01  0.6605800E-03  0.1015096E-02  0.1001783E+05 -0.2106721E-03  0.3826815E-04 -0.3139256E+01  0.2860967E+02  0.1570804E+01  0.1522993E-04 -0.2637131E+01
  0.2100000E+00  0.2487619E+03 -0.1570772E+01  0.1549814E-02  0.3141179E+01  0.1001403E+05 -0.2324966E-03  0.7857010E-04 -0.3793088E-03  0.3007924E+02  0.1570808E+01  0.1715177E-04 -0.3107704E+01
  0.2200000E+00  0.2606031E+03 -0.1570779E+01  0.6215874E-03 -0.1102747E-02  0.1001005E+05 -0.2554503E-03  0.8942750E-04 -0.3140593E+01  0.3153057E+02  0.1570805E+01  0.3421517E-04 -0.2816675E+01
  0.2300000E+00  0.2724300E+03 -0.1570775E+01  0.1621406E-02 -0.3951815E-03  0.1000596E+05 -0.2795048E-03  0.5348402E-04 -0.1114439E-02  0.3293112E+02  0.1570812E+01  0.2886417E-04  0.3009826E+01
  0.2400000E+00  0.2845555E+03 -0.1570771E+01  0.2266314E-02  0.3141290E+01  0.1000170E+05 -0.3046102E-03  0.6273563E-05  0.3092287E+01  0.3440320E+02  0.1570807E+01  0.1245737E-04  0.2733206E+01
  0.2500000E+00  0.2961814E+03 -0.1570772E+01  0.6233921E-03 -0.2509855E-02  0.9997228E+04 -0.3310420E-03  0.1169370E-04 -0.3139681E+01  0.3581300E+02  0.1570838E+01  0.3249050E-04 -0.2788982E+01
  0.2600000E+00  0.3080730E+03 -0.1570771E+01  0.2375513E-02 -0.5645537E-04  0.9992589E+04 -0.3585111E-03  0.4258060E-04  0.4986834E-02  0.3725289E+02  0.1570843E+01  0.2084974E-04  0.4059241E+00
  0.2700000E+00  0.3200229E+03 -0.1570763E+01  0.1671110E-03  0.4815157E-02  0.9987757E+04 -0.3871466E-03  0.1877772E-05  0.2281371E+00  0.3870866E+02  0.1570820E+01  0.2313250E-04  0.3010127E+01
  0.2800000E+00  0.3321474E+03 -0.1570764E+01  0.7061142E-03 -0.3140685E+01  0.9982726E+04 -0.4169712E-03  0.7969969E-05  0.3105126E+01  0.4019136E+02  0.1570829E+01  0.4393352E-04  0.3002152E-01
  0.2900000E+00  0.3442766E+03 -0.1570761E+01  0.1272784E-02  0.1194169E-02  0.9977497E+04 -0.4479160E-03  0.2983995E-04  0.3136599E+01  0.4168119E+02  0.1570833E+01  0.1623957E-04 -0.3493198E+00
  0.3000000E+00  0.3563568E+03 -0.1570754E+01  0.2022691E-03  0.3138940E+01  0.9972158E+04 -0.4800287E-03  0.6404899E-04  0.1512218E-02  0.4313502E+02  0.1570836E+01  0.3318946E-04  0.4005588E+00
  0.3100000E+00  0.3684249E+03 -0.1570752E+01  0.2476759E-02 -0.3141580E+01  0.9966658E+04 -0.5133381E-03  0.1941685E-04  0.8058150E-02  0.4457852E+02  0.1570842E+01  0.1047696E-04  0.1202703E+01
  0.3200000E+00  0.3805465E+03 -0.1570753E+01  0.3313968E-03 -0.3137725E+01  0.9960981E+04 -0.5478722E-03  0.3867266E-04  0.4623786E-02  0.4605652E+02  0.1570836E+01  0.9359546E-04  0.3066216E+01
  0.3300000E+00  0.3926263E+03 -0.1570748E+01  0.1167388E-02  0.3139908E+01  0.9955135E+04 -0.5836500E-03  0.7053837E-04 -0.1056246E-03  0.4752319E+02  0.1570845E+01  0.1846514E-04 -0.5963959E+00
  0.3400000E+00  0.4047331E+03 -0.1570744E+01  0.2636331E-03 -0.3617439E-02  0.9949106E+04 -0.6205848E-03  0.2251567E-05 -0.3105185E+01  0.4898719E+02  0.1570855E+01  0.4231616E-04  0.1342153E+00
  0.3500000E+00  0.4167883E+03 -0.1570745E+01  0.6725376E-04  0.3129628E+01  0.9942868E+04 -0.6588035E-03  0.4365556E-04  0.1092293E-01  0.5045255E+02  0.1570853E+01  0.2115159E-04 -0.4457670E+00
  0.3600000E+00  0.4288803E+03 -0.1570742E+01  0.6655331E-03  0.2776341E-02  0.9936460E+04 -0.6983002E-03  0.8671812E-04 -0.3137297E+01  0.5192841E+02  0.1570848E+01  0.2109034E-04  0.2133664E+01
  0.3700000E+00  0.4410043E+03 -0.1570738E+01  0.7782059E-05 -0.2793517E+00  0.9929851E+04 -0.7390535E-03  0.4370511E-04 -0.3141422E+01  0.5341117E+02  0.1570867E+01  0.4133892E-04 -0.2528470E+00
  0.3800000E+00  0.4530594E+03 -0.1570730E+01  0.3442208E-03 -0.4761868E-02  0.9923050E+04 -0.7809993E-03  0.7240487E-04 -0.1852231E-02  0.5489537E+02  0.1570862E+01  0.2868693E-04 -0.5274576E+00
  0.3900000E+00  0.4652025E+03 -0.1570725E+01  0.1697064E-02  0.3140574E+01  0.9916060E+04 -0.8242272E-03  0.3273957E-04 -0.3131352E+01  0.5638357E+02  0.1570867E+01  0.1156961E-04 -0.3081022E+01
  0.4000000E+00  0.4772772E+03 -0.1570723E+01  0.4556181E-03 -0.8503394E-03  0.9909032E+04 -0.8687109E-03  0.5494058E-04 -0.5424437E-03  0.5783057E+02  0.1570868E+01  0.2069859E-04  0.2703704E+01
  0.4100000E+00  0.4893859E+03 -0.1570726E+01  0.3302799E-04 -0.3085619E+01  0.9901808E+04 -0.9145166E-03  0.2753004E-04  0.3138345E+01  0.5929042E+02  0.1570878E+01  0.4331733E-04  0.2885267E+01
  0.4200000E+00  0.5015636E+03 -0.1570716E+01  0.8227383E-03 -0.1122923E-02  0.9894402E+04 -0.9616531E-03  0.3951226E-04 -0.3131976E+01  0.6078373E+02  0.1570881E+01  0.8445642E-04 -0.3070606E+01
  0.4300000E+00  0.5137954E+03 -0.1570715E+01  0.2997676E-03  0.2584871E-02  0.9886831E+04 -0.1010159E-02  0.2230086E-04  0.3130901E+01  0.6228390E+02  0.1570884E+01  0.1863751E-04  0.1032708E+01
  0.4400000E+00  0.5261534E+03 -0.1570709E+01  0.1120348E-02  0.2660098E-02  0.9879068E+04 -0.1060027E-02  0.9285353E-05  0.3096643E+01  0.6379116E+02  0.1570877E+01  0.4580104E-04 -0.1008588E-01
  0.4500000E+00  0.5385280E+03 -0.1570701E+01  0.1020745E-02  0.3140600E+01  0.9871120E+04 -0.1111304E-02  0.1856685E-04 -0.3140790E+01  0.6530169E+02  0.1570895E+01  0.2546872E-04 -0.2627884E+00
  0.4600000E+00  0.5509435E+03 -0.1570699E+01  0.5701389E-03 -0.8468171E-02  0.9863016E+04 -0.1164024E-02  0.4097131E-04  0.5273646E-02  0.6682109E+02  0.1570891E+01  0.2634472E-04  0.3728388E+00
  0.4700000E+00  0.5633983E+03 -0.1570696E+01  0.7281901E-03 -0.4911179E-03  0.9854688E+04 -0.1218214E-02  0.1462029E-03  0.3139860E+01  0.6834766E+02  0.1570900E+01  0.7441620E-04  0.3094719E+01
  0.4800000E+00  0.5758892E+03 -0.1570689E+01  0.5375151E-03 -0.1219786E-02  0.9846190E+04 -0.1273947E-02  0.1498837E-03 -0.2236911E-02  0.6987960E+02  0.1570897E+01  0.6413117E-04 -0.2746372E+01
  0.4900000E+00  0.5884191E+03 -0.1570683E+01  0.2545152E-03  0.5152177E-02  0.9837502E+04 -0.1330917E-02  0.2636395E-04  0.1695711E-01  0.7142027E+02  0.1570914E+01  0.2258374E-04 -0.2780814E+01
  0.5000000E+00  0.6009186E+03 -0.1570680E+01  0.3214685E-04 -0.3106357E+01  0.9828640E+04 -0.1389266E-02  0.3026439E-04  0.3138639E+01  0.7296403E+02  0.1570911E+01  0.4574662E-05 -0.1569167E+01
  0.5100000E+00  0.6134272E+03 -0.1570673E+01  0.3597657E-03  0.3130575E+01  0.9819572E+04 -0.1449153E-02  0.1241118E-03 -0.7804057E-03  0.7450554E+02  0.1570921E+01  0.8776774E-04  0.3091147E+01
  0.5200000E+00  0.6259356E+03 -0.1570670E+01  0.7035447E-03  0.3139686E+01  0.9810422E+04 -0.1510392E-02  0.3159167E-04 -0.3132866E+01  0.7602964E+02  0.1570917E+01  0.1208782E-04 -0.2806198E+01
  0.5300000E+00  0.6383872E+03 -0.1570662E+01  0.5953017E-03  0.3140641E+01  0.9801157E+04 -0.1573065E-02  0.9475670E-04  0.2122977E-02  0.7753070E+02  0.1570933E+01  0.3027157E-04 -0.3282884E+00
  0.5400000E+00  0.6508702E+03 -0.1570656E+01  0.2503431E-03 -0.5357089E-02  0.9791710E+04 -0.1637311E-02  0.4361578E-04 -0.3139714E+01  0.7904674E+02  0.1570932E+01  0.3748887E-04 -0.2726314E+01
  0.5500000E+00  0.6633967E+03 -0.1570649E+01  0.2610714E-03  0.1586806E-01  0.9782063E+04 -0.1703160E-02  0.1296248E-04  0.4542328E-01  0.8058839E+02  0.1570934E+01  0.3577173E-04  0.6438343E+00
  0.5600000E+00  0.6759513E+03 -0.1570643E+01  0.3548603E-03 -0.3136806E+01  0.9772300E+04 -0.1770574E-02  0.6267872E-04 -0.1188723E-01  0.8213965E+02  0.1570947E+01  0.4315365E-04  0.2934310E+01
  0.5700000E+00  0.6885432E+03 -0.1570636E+01  0.6555915E-03  0.3141365E+01  0.9762335E+04 -0.1839627E-02  0.7864148E-06  0.1119858E+01  0.8369341E+02  0.1570954E+01  0.3092160E-05  0.9600708E+00
  0.5800000E+00  0.7011057E+03 -0.1570630E+01  0.9417550E-03 -0.1803796E-02  0.9752184E+04 -0.1910364E-02  0.8522069E-04  0.3136871E+01  0.8523532E+02  0.1570961E+01  0.3879842E-04  0.1969990E+01
  0.5900000E+00  0.7136736E+03 -0.1570625E+01  0.2056750E-02 -0.1869210E-02  0.9741868E+04 -0.1982840E-02  0.1884856E-06  0.2819856E+01  0.8678154E+02  0.1570966E+01  0.3305496E-04  0.1929619E+01
  0.6000000E+00  0.7262916E+03 -0.1570616E+01  0.8091257E-03  0.7440279E-02  0.9731366E+04 -0.2057037E-02  0.1346937E-03  0.5586843E-02  0.8834027E+02  0.1570973E+01  0.6179171E-04 -0.2759026E+01
  0.6100000E+00  0.7389528E+03 -0.1570609E+01  0.1342945E-03  0.8876822E-02  0.9720669E+04 -0.2133070E-02  0.4560316E-04 -0.3125908E+01  0.8990489E+02  0.1570981E+01  0.1166492E-04  0.2864697E+01
  0.6200000E+00  0.7516579E+03 -0.1570602E+01  0.1591922E-02 -0.1291748E-02  0.9709798E+04 -0.2210972E-02  0.1426994E-04 -0.3655643E-01  0.9147832E+02  0.1570984E+01  0.2007365E-04 -0.1094201E+01
  0.6300000E+00  0.7644155E+03 -0.1570594E+01  0.1017452E-02 -0.3140070E+01  0.9698707E+04 -0.2290934E-02  0.1431717E-03  0.3137326E+01  0.9306082E+02  0.1570995E+01  0.3570387E-04 -0.3135332E+01
  0.6400000E+00  0.7772241E+03 -0.1570592E+01  0.1440021E-02 -0.1697053E-02  0.9687498E+04 -0.2372384E-02  0.7218125E-04  0.7225432E-03  0.9465132E+02  0.1571000E+01  0.3447714E-04  0.1759490E+00
  0.6500000E+00  0.7900820E+03 -0.1570579E+01  0.3837348E-03 -0.3106557E-03  0.9676059E+04 -0.2455194E-02  0.1222232E-03 -0.7985689E-02  0.9626120E+02  0.1571020E+01  0.4971385E-05 -0.2030421E+01
  0.6600000E+00  0.8029478E+03 -0.1570574E+01  0.1179671E-02  0.3138511E+01  0.9664445E+04 -0.2539938E-02  0.1600493E-04 -0.1163821E-01  0.9786810E+02  0.1571015E+01  0.5456609E-05  0.2929736E+01
  0.6700000E+00  0.8159080E+03 -0.1570563E+01  0.1699904E-02 -0.3138296E+01  0.9652606E+04 -0.2626691E-02  0.1639469E-04 -0.6366611E-01  0.9948715E+02  0.1571030E+01  0.6066567E-04 -0.2895958E+01
  0.6799999E+00  0.8289769E+03 -0.1570555E+01  0.6838152E-03 -0.1568970E-02  0.9640766E+04 -0.2714842E-02  0.1113268E-03 -0.3139652E+01  0.1011019E+03  0.1571042E+01  0.1300376E-04  0.2399152E+01
  0.6899999E+00  0.8420768E+03 -0.1570547E+01  0.5606129E-03  0.3139359E+01  0.9628800E+04 -0.2804658E-02  0.1241272E-03  0.2821113E-02  0.1027047E+03  0.1571046E+01  0.1470793E-04  0.1973692E+01
  0.7000000E+00  0.8552056E+03 -0.1570541E+01  0.2801167E-04 -0.3039277E+01  0.9616778E+04 -0.2896446E-02  0.7211470E-04 -0.3126715E+01  0.1043099E+03  0.1571052E+01  0.2671427E-04  0.1198577E+01
  0.7099999E+00  0.8684047E+03 -0.1570528E+01  0.9374545E-03 -0.6930425E-02  0.9604450E+04 -0.2990279E-02  0.1394835E-04  0.4755763E-01  0.1059449E+03  0.1571068E+01  0.1586685E-04  0.1337662E+01
  0.7200000E+00  0.8816603E+03 -0.1570520E+01  0.1785785E-02  0.3141425E+01  0.9591983E+04 -0.3086183E-02  0.1037747E-03  0.3133911E+01  0.1075996E+03  0.1571070E+01  0.5833103E-05 -0.2899091E+01
  0.7300000E+00  0.8949567E+03 -0.1570512E+01  0.3117245E-03  0.1185525E-01  0.9579344E+04 -0.3184168E-02  0.1139047E-03  0.3139499E+01  0.1092609E+03  0.1571085E+01  0.3374744E-04  0.3035421E+01
  0.7400000E+00  0.9083027E+03 -0.1570499E+01  0.1056509E-03 -0.5641689E-02  0.9566443E+04 -0.3284283E-02  0.1847523E-03  0.9073796E-02  0.1109258E+03  0.1571085E+01  0.4617713E-04  0.3019960E+01
  0.7500000E+00  0.9217023E+03 -0.1570490E+01  0.2097299E-03  0.1023128E-01  0.9553461E+04 -0.3386598E-02  0.9512903E-04 -0.3141280E+01  0.1125989E+03  0.1571110E+01  0.7052921E-04  0.2741861E+01
  0.7600000E+00  0.9350435E+03 -0.1570481E+01  0.4391726E-03 -0.3136571E+01  0.9540320E+04 -0.3491212E-02  0.8360614E-04 -0.3125640E+01  0.1142491E+03  0.1571112E+01  0.2380814E-04  0.2874298E+01
  0.7700000E+00  0.9484410E+03 -0.1570468E+01  0.1446801E-02  0.3136690E+01  0.9526982E+04 -0.3598147E-02  0.1190428E-03  0.3127197E+01  0.1159193E+03  0.1571129E+01  0.2229266E-04  0.1622958E+01
  0.7800000E+00  0.9618929E+03 -0.1570457E+01  0.2970617E-03  0.3122931E+01  0.9513466E+04 -0.3707492E-02  0.7668310E-04  0.6704136E-02  0.1175993E+03  0.1571139E+01  0.4400294E-04 -0.2610349E+01
  0.7900000E+00  0.9753998E+03 -0.1570445E+01  0.2538566E-03 -0.1878373E-02  0.9499786E+04 -0.3819341E-02  0.2204184E-03  0.1892898E-02  0.1192870E+03  0.1571148E+01  0.2392115E-04 -0.1392949E+01
  0.8000000E+00  0.9889444E+03 -0.1570432E+01  0.3904655E-04 -0.3124800E+01  0.9485898E+04 -0.3933771E-02  0.1559258E-03  0.3141019E+01  0.1209836E+03  0.1571159E+01  0.2993294E-04  0.2793077E+01
  0.8099999E+00  0.1002516E+04 -0.1570423E+01  0.1992543E-04 -0.4189168E-01  0.9471854E+04 -0.4050945E-02  0.1418294E-03 -0.1470909E-02  0.1226870E+03  0.1571167E+01  0.1018791E-04  0.3152751E+00
  0.8200001E+00  0.1016144E+04 -0.1570412E+01  0.1758398E-02 -0.3140542E+01  0.9457608E+04 -0.4171413E-02  0.1569092E-03  0.6647675E-03  0.1243984E+03  0.1571184E+01  0.4099017E-04  0.2016559E+01
  0.8299999E+00  0.1029825E+04 -0.1570398E+01  0.6753827E-03  0.2735850E-02  0.9443182E+04 -0.4293452E-02  0.9629158E-04  0.3139271E+01  0.1261178E+03  0.1571193E+01  0.3627002E-04  0.1004445E+01
  0.8400000E+00  0.1043534E+04 -0.1570381E+01  0.1393438E-02 -0.2138768E-03  0.9428587E+04 -0.4416784E-02  0.9659449E-04 -0.3131257E+01  0.1278537E+03  0.1571212E+01  0.4637159E-04  0.6081461E+00
  0.8500000E+00  0.1057260E+04 -0.1570370E+01  0.6075501E-03 -0.3141495E+01  0.9413807E+04 -0.4542856E-02  0.1059008E-03 -0.3125832E+01  0.1295960E+03  0.1571220E+01  0.2065131E-04 -0.1318468E+01
  0.8600000E+00  0.1071011E+04 -0.1570358E+01  0.2904869E-03 -0.3242550E-01  0.9398835E+04 -0.4671805E-02  0.3644861E-04  0.3137095E+01  0.1313394E+03  0.1571240E+01  0.2015483E-04  0.7561179E+00
  0.8700000E+00  0.1084825E+04 -0.1570343E+01  0.1030624E-02 -0.5783360E-03  0.9383653E+04 -0.4803842E-02  0.6873399E-04  0.1691078E-01  0.1330934E+03  0.1571250E+01  0.6363214E-04  0.1787941E+01
  0.8800000E+00  0.1098657E+04 -0.1570328E+01  0.6972551E-03  0.3419385E-03  0.9368487E+04 -0.4936692E-02  0.9429534E-04 -0.4108700E-02  0.1348303E+03  0.1571265E+01  0.3306874E-04  0.1327785E+01
  0.8900000E+00  0.1112506E+04 -0.1570315E+01  0.1409952E-02 -0.3139099E+01  0.9353275E+04 -0.5071371E-02  0.8770840E-04  0.1868939E-02  0.1365546E+03  0.1571279E+01  0.2193186E-04  0.1498715E+01
  0.9000000E+00  0.1126385E+04 -0.1570301E+01  0.1206051E-02  0.4052562E-02  0.9337912E+04 -0.5208939E-02  0.9146422E-04  0.4398824E-02  0.1382796E+03  0.1571293E+01  0.3407354E-04 -0.2988810E+01
  0.9100000E+00  0.1140353E+04 -0.1570283E+01  0.5938541E-03  0.3134968E+01  0.9322352E+04 -0.5349378E-02  0.3839178E-04 -0.1824321E-01  0.1400272E+03  0.1571308E+01  0.7764006E-05 -0.9572399E+00
  0.9200000E+00  0.1154392E+04 -0.1570267E+01  0.6734494E-03 -0.1035545E-01  0.9306664E+04 -0.5492776E-02  0.1518169E-03 -0.7165167E-02  0.1418012E+03  0.1571327E+01  0.4518748E-04  0.1158197E+01
  0.9299999E+00  0.1168518E+04 -0.1570250E+01  0.3755752E-03  0.1872797E-01  0.9290745E+04 -0.5639130E-02  0.3539965E-04  0.3104541E+01  0.1435972E+03  0.1571345E+01  0.2711947E-04  0.1477251E+01
  0.9399999E+00  0.1182687E+04 -0.1570234E+01  0.9099250E-03 -0.3140545E+01  0.9274694E+04 -0.5788540E-02  0.1403768E-04 -0.3130977E+01  0.1454020E+03  0.1571362E+01  0.4020453E-04 -0.2249589E+01
  0.9500000E+00  0.1196932E+04 -0.1570217E+01  0.6528156E-03 -0.8856600E-02  0.9258496E+04 -0.5941049E-02  0.9307677E-05 -0.4484181E-01  0.1472162E+03  0.1571377E+01  0.5624021E-04 -0.2016196E+01
  0.9599999E+00  0.1211216E+04 -0.1570199E+01  0.2026089E-02  0.2706512E-02  0.9242120E+04 -0.6096893E-02  0.1037717E-03 -0.3141305E+01  0.1490349E+03  0.1571394E+01  0.3210036E-04  0.1658178E+01
  0.9700000E+00  0.1225618E+04 -0.1570180E+01  0.7305354E-03 -0.3126743E+01  0.9225618E+04 -0.6255766E-02  0.3074146E-03 -0.4847272E-02  0.1508668E+03  0.1571416E+01  0.4060788E-04 -0.1796550E+01
  0.9800000E+00  0.1239990E+04 -0.1570163E+01  0.3100635E-02 -0.3140670E+01  0.9208838E+04 -0.6418211E-02  0.8654776E-04 -0.3114559E+01  0.1526824E+03  0.1571431E+01  0.4518149E-04 -0.2358061E+01
  0.9900000E+00  0.1254474E+04 -0.1570143E+01  0.1587876E-03 -0.9888427E-01  0.9191953E+04 -0.6584289E-02  0.9513803E-05 -0.3053769E+01  0.1545307E+03  0.1571451E+01  0.2724338E-04 -0.2026128E+01
  0.1000000E+01  0.1269059E+04 -0.1570124E+01  0.6790353E-04 -0.3036946E+01  0.9174894E+04 -0.6754101E-02  0.2908249E-04 -0.6152390E-01  0.1563929E+03  0.1571468E+01  0.5672924E-04  0.1377316E+01
  0.1010000E+01  0.1283769E+04 -0.1570101E+01  0.1370554E-02  0.3138766E+01  0.9157616E+04 -0.6927706E-02  0.5901704E-05 -0.2966482E+01  0.1582719E+03  0.1571491E+01  0.2427764E-04 -0.1899534E+01
  0.1020000E+01  0.1298672E+04 -0.1570081E+01  0.4236166E-03  0.5487492E-02  0.9140230E+04 -0.7105316E-02  0.1075071E-03  0.3127870E+01  0.1601763E+03  0.1571509E+01  0.3905366E-04  0.2427577E+00
  0.1030000E+01  0.1313635E+04 -0.1570059E+01  0.8171872E-03 -0.3137290E+01  0.9122645E+04 -0.7287093E-02  0.6217229E-04  0.3129369E+01  0.1620940E+03  0.1571532E+01  0.3303335E-04 -0.4289421E+00
  0.1040000E+01  0.1328676E+04 -0.1570038E+01  0.2063099E-02 -0.3139888E+01  0.9104886E+04 -0.7473408E-02  0.1205269E-03  0.1026176E-01  0.1640249E+03  0.1571556E+01  0.2596636E-04 -0.1187306E+01
  0.1050000E+01  0.1343806E+04 -0.1570015E+01  0.3959781E-04  0.4185300E+00  0.9086928E+04 -0.7665331E-02  0.3184741E-03 -0.6410167E-02  0.1659693E+03  0.1571576E+01  0.3875486E-04  0.1407039E+01
  0.1060000E+01  0.1359028E+04 -0.1569992E+01  0.9797834E-03 -0.2129211E-02  0.9068817E+04 -0.7860147E-02  0.3252647E-03  0.3573375E-02  0.1679263E+03  0.1571602E+01  0.2500697E-04  0.2978795E+01
  0.1070000E+01  0.1374302E+04 -0.1569968E+01  0.2580413E-03 -0.3097460E+01  0.9050570E+04 -0.8055044E-02  0.8018500E-04 -0.3121150E+01  0.1698998E+03  0.1571626E+01  0.4603190E-04  0.7501401E+00
  0.1080000E+01  0.1389629E+04 -0.1569944E+01  0.2610928E-04  0.3127895E+01  0.9032106E+04 -0.8254243E-02  0.2074845E-03 -0.3139079E+01  0.1718906E+03  0.1571647E+01  0.2687391E-04 -0.1192555E+01
  0.1090000E+01  0.1404952E+04 -0.1569919E+01  0.2970972E-03  0.3127950E+01  0.9013431E+04 -0.8458236E-02  0.1077125E-03 -0.1134428E-01  0.1738760E+03  0.1571673E+01  0.2821214E-04 -0.5146912E+00
  0.1100000E+01  0.1420372E+04 -0.1569892E+01  0.1768953E-02 -0.2729288E-02  0.8994574E+04 -0.8667111E-02  0.1314983E-03 -0.3264150E-01  0.1758757E+03  0.1571702E+01  0.6193623E-04  0.1471511E+01
  0.1110000E+01  0.1435862E+04 -0.1569867E+01  0.8972119E-03 -0.3131827E+01  0.8975496E+04 -0.8881514E-02  0.1250565E-03 -0.9770904E-02  0.1778877E+03  0.1571728E+01  0.5105211E-04 -0.2147465E+01
  0.1120000E+01  0.1451387E+04 -0.1569840E+01  0.1257063E-03 -0.3110767E+01  0.8956553E+04 -0.9094752E-02  0.8183935E-04 -0.7283193E-02  0.1798835E+03  0.1571757E+01  0.3412438E-04  0.3736949E+00
  0.1130000E+01  0.1467142E+04 -0.1569811E+01  0.1248679E-02  0.1140871E-01  0.8937612E+04 -0.9307987E-02  0.5213189E-04 -0.3064053E+01  0.1818924E+03  0.1571782E+01  0.4839955E-04  0.2741875E+01
  0.1140000E+01  0.1482772E+04 -0.1569783E+01  0.3677830E-03 -0.1102062E-01  0.8918530E+04 -0.9526406E-02  0.1415614E-03  0.3139382E+01  0.1838795E+03  0.1571811E+01  0.4647539E-04  0.1781397E+01
  0.1150000E+01  0.1498493E+04 -0.1569752E+01  0.2819300E-02  0.3140810E+01  0.8899307E+04 -0.9749515E-02  0.1120100E-03 -0.1516648E-01  0.1858775E+03  0.1571839E+01  0.5030858E-04 -0.1561318E+01
  0.1160000E+01  0.1514322E+04 -0.1569722E+01  0.5373444E-03 -0.2640310E-01  0.8879912E+04 -0.9977248E-02  0.2176166E-03  0.3141045E+01  0.1879134E+03  0.1571868E+01  0.4587840E-04 -0.9824667E-01
  0.1170000E+01  0.1530252E+04 -0.1569693E+01  0.6517373E-03 -0.7865211E-02  0.8860308E+04 -0.1020972E-01  0.1235089E-03 -0.1146182E-01  0.1899768E+03  0.1571903E+01  0.6315561E-04 -0.1013948E+01
  0.1180000E+01  0.1546281E+04 -0.1569660E+01  0.2749406E-03  0.3096267E+01  0.8840592E+04 -0.1044691E-01  0.3614567E-03  0.3132771E+01  0.1920641E+03  0.1571934E+01  0.2629328E-04  0.2782557E+01
  0.1190000E+01  0.1562397E+04 -0.1569627E+01  0.1398328E-03 -0.4135866E-01  0.8820740E+04 -0.1068886E-01  0.2771041E-03 -0.3137667E+01  0.1941643E+03  0.1571965E+01  0.3534029E-04 -0.2353213E+01
  0.1200000E+01  0.1578593E+04 -0.1569593E+01  0.2214166E-03  0.3850466E-01  0.8800745E+04 -0.1093578E-01  0.1009113E-03 -0.3543954E-02  0.1962737E+03  0.1571998E+01  0.1292847E-04  0.2541442E+01
  0.1210000E+01  0.1594875E+04 -0.1569558E+01  0.5760203E-03 -0.1862557E-02  0.8780583E+04 -0.1118790E-01  0.3802101E-05  0.2904220E+01  0.1983944E+03  0.1572036E+01  0.1688361E-04 -0.1407680E+01
  0.1220000E+01  0.1611251E+04 -0.1569523E+01  0.3755502E-03  0.2920730E-01  0.8760268E+04 -0.1144527E-01  0.7160276E-04 -0.2216540E-01  0.2005293E+03  0.1572071E+01  0.5797523E-04  0.2327838E+01
  0.1230000E+01  0.1627615E+04 -0.1569487E+01  0.4104069E-03  0.3120823E+01  0.8739790E+04 -0.1170815E-01  0.6954544E-04  0.3654033E-01  0.2026498E+03  0.1572104E+01  0.3613778E-04 -0.2387690E+01
  0.1240000E+01  0.1644055E+04 -0.1569447E+01  0.1201077E-02  0.3133156E+01  0.8719195E+04 -0.1197678E-01  0.1811501E-03 -0.3130282E+01  0.2047825E+03  0.1572146E+01  0.3469502E-04 -0.1366663E+01
  0.1250000E+01  0.1660599E+04 -0.1569410E+01  0.1195081E-02 -0.3137803E+01  0.8698412E+04 -0.1225142E-01  0.2341270E-03  0.3141561E+01  0.2069471E+03  0.1572183E+01  0.2039892E-04  0.5486881E+00
  0.1260000E+01  0.1677244E+04 -0.1569369E+01  0.1277466E-02  0.3136040E+01  0.8677475E+04 -0.1253222E-01  0.2081400E-03  0.3139087E+01  0.2091275E+03  0.1572224E+01  0.2815422E-04 -0.1747431E+01
  0.1270000E+01  0.1694005E+04 -0.1569328E+01  0.6117013E-03  0.1120592E-01  0.8656400E+04 -0.1281950E-01  0.1969943E-03 -0.3138378E+01  0.2113249E+03  0.1572265E+01  0.5102921E-04  0.2173054E+01
  0.1280000E+01  0.1710847E+04 -0.1569286E+01  0.1218714E-03  0.3074048E+01  0.8635133E+04 -0.1311350E-01  0.1097925E-03  0.3137928E+01  0.2135353E+03  0.1572308E+01  0.2596220E-04  0.1062471E+01
  0.1290000E+01  0.1727797E+04 -0.1569240E+01  0.8577231E-03  0.3136242E+01  0.8613701E+04 -0.1341447E-01  0.1374521E-03  0.3134221E+01  0.2157654E+03  0.1572354E+01  0.1989324E-04  0.1609757E+01
  0.1300000E+01  0.1744842E+04 -0.1569195E+01  0.3877430E-03  0.4721018E-01  0.8592146E+04 -0.1372289E-01  0.3223553E-03  0.3132487E+01  0.2180124E+03  0.1572397E+01  0.5190227E-04  0.7366563E+00
  0.1310000E+01  0.1761978E+04 -0.1569149E+01  0.1021870E-02  0.3966381E-02  0.8570322E+04 -0.1403998E-01  0.2991075E-03  0.8743304E-02  0.2202736E+03  0.1572443E+01  0.5089002E-04 -0.1651701E+01
  0.1320000E+01  0.1779268E+04 -0.1569101E+01  0.2268988E-02  0.8274912E-02  0.8548451E+04 -0.1436782E-01  0.2476715E-04 -0.1303248E+00  0.2225587E+03  0.1572489E+01  0.4871367E-04 -0.3066885E+01
  0.1330000E+01  0.1796661E+04 -0.1569055E+01  0.1349568E-02  0.5299882E-03  0.8526362E+04 -0.1469614E-01  0.2825310E-03 -0.3135659E+01  0.2248605E+03  0.1572542E+01  0.2230153E-04  0.5798486E+00
  0.1340000E+01  0.1814166E+04 -0.1569004E+01  0.5176895E-03  0.3074764E+01  0.8504145E+04 -0.1502606E-01  0.8636830E-04  0.5176004E-02  0.2271890E+03  0.1572591E+01  0.4014523E-04  0.2042412E+01
  0.1350000E+01  0.1831744E+04 -0.1568951E+01  0.9837176E-03  0.2302499E-02  0.8481684E+04 -0.1536378E-01  0.6771294E-04 -0.7812274E-02  0.2295403E+03  0.1572642E+01  0.6249915E-04  0.2134197E+01
  0.1360000E+01  0.1849363E+04 -0.1568899E+01  0.4006159E-03 -0.3122547E+01  0.8459098E+04 -0.1570988E-01  0.2516949E-03  0.3122884E+01  0.2318935E+03  0.1572696E+01  0.3002124E-04  0.2641533E+01
  0.1370000E+01  0.1867094E+04 -0.1568844E+01  0.1585266E-02  0.5038308E-02  0.8436278E+04 -0.1606511E-01  0.3332553E-03  0.3135757E+01  0.2342645E+03  0.1572751E+01  0.8825264E-04 -0.1665492E+01
  0.1380000E+01  0.1884932E+04 -0.1568787E+01  0.5404442E-03  0.3971420E-01  0.8413264E+04 -0.1643063E-01  0.6914436E-04  0.3132326E+01  0.2366540E+03  0.1572807E+01  0.9281468E-04 -0.1764666E+01
  0.1390000E+01  0.1902917E+04 -0.1568730E+01  0.5215863E-03 -0.3102271E+01  0.8390166E+04 -0.1680449E-01  0.9983569E-04  0.3082079E+01  0.2390613E+03  0.1572867E+01  0.8295249E-04 -0.2494067E+01
  0.1400000E+01  0.1920962E+04 -0.1568670E+01  0.5042638E-03  0.5791896E-02  0.8367578E+04 -0.1715723E-01  0.1268403E-03 -0.4365757E-01  0.2414324E+03  0.1572924E+01  0.5027022E-04 -0.2320974E+01
  0.1410000E+01  0.1939101E+04 -0.1568611E+01  0.5103163E-03  0.3121735E+01  0.8344857E+04 -0.1751923E-01  0.5220374E-03  0.8734650E-02  0.2438076E+03  0.1572985E+01  0.8588324E-04 -0.1620681E+00
  0.1420000E+01  0.1957358E+04 -0.1568547E+01  0.1263537E-02  0.3133903E+01  0.8322006E+04 -0.1788935E-01  0.1785755E-03  0.7510033E-03  0.2461962E+03  0.1573048E+01  0.2351114E-04  0.1113951E+01
  0.1430000E+01  0.1975774E+04 -0.1568484E+01  0.1442556E-02  0.2396492E-02  0.8299061E+04 -0.1826707E-01  0.1416174E-04  0.1969830E+00  0.2486042E+03  0.1573108E+01  0.7232262E-04  0.1608716E+01
  0.1440000E+01  0.1994418E+04 -0.1568419E+01  0.1521218E-02 -0.3129681E+01  0.8275904E+04 -0.1865298E-01  0.9176797E-04 -0.3113416E+01  0.2510759E+03  0.1573175E+01  0.7549129E-04 -0.1781586E+01
  0.1450000E+01  0.2013326E+04 -0.1568352E+01  0.1325857E-02 -0.4135923E-02  0.8252526E+04 -0.1904658E-01  0.5424688E-04  0.3125935E+01  0.2535933E+03  0.1573242E+01  0.4756410E-04  0.1911966E+01
  0.1460000E+01  0.2032460E+04 -0.1568282E+01  0.1232169E-02 -0.3106999E+01  0.8229215E+04 -0.1944801E-01  0.2892225E-03  0.4233756E-01  0.2561567E+03  0.1573311E+01  0.4678205E-04  0.1744952E+01
  0.1470000E+01  0.2051711E+04 -0.1568211E+01  0.2221343E-03  0.3120930E+01  0.8205676E+04 -0.1985731E-01  0.1650762E-03  0.3122229E+01  0.2587415E+03  0.1573381E+01  0.6319319E-04  0.2109598E+01
  0.1480000E+01  0.2071093E+04 -0.1568138E+01  0.5621320E-03 -0.1463309E-01  0.8181720E+04 -0.2027438E-01  0.1699809E-03  0.3097220E+01  0.2613445E+03  0.1573454E+01  0.6839584E-04 -0.1972827E+01
  0.1490000E+01  0.2090612E+04 -0.1568063E+01  0.4921872E-03  0.3122336E+01  0.8158278E+04 -0.2069998E-01  0.1254815E-03 -0.3126807E+01  0.2639642E+03  0.1573531E+01  0.5077637E-04 -0.1955880E+01
  0.1500000E+01  0.2110278E+04 -0.1567985E+01  0.2005982E-02 -0.6834148E-02  0.8134208E+04 -0.2113399E-01  0.2056484E-03 -0.3130615E+01  0.2666039E+03  0.1573608E+01  0.4922395E-04  0.1811663E+01
  0.1510000E+01  0.2130081E+04 -0.1567905E+01  0.5223964E-03  0.9013926E-02  0.8110004E+04 -0.2157692E-01  0.2252159E-03  0.3125382E+01  0.2692615E+03  0.1573691E+01  0.5070089E-04  0.9204770E+00
  0.1520000E+01  0.2149847E+04 -0.1567823E+01  0.4618930E-03 -0.3691505E-01  0.8086315E+04 -0.2202913E-01  0.8289509E-04 -0.3281195E-01  0.2718922E+03  0.1573771E+01  0.4516620E-04  0.1615680E+01
  0.1530000E+01  0.2169758E+04 -0.1567738E+01  0.1291546E-02  0.3134485E+01  0.8061830E+04 -0.2249104E-01  0.6442126E-04 -0.3069478E+01  0.2745548E+03  0.1573855E+01  0.6346058E-04  0.1514412E+01
  0.1540000E+01  0.2189838E+04 -0.1567652E+01  0.5096198E-03 -0.2163911E-01  0.8037426E+04 -0.2296290E-01  0.1812258E-03  0.1747356E-01  0.2772586E+03  0.1573945E+01  0.7177817E-04 -0.1953770E+01
  0.1550000E+01  0.2210073E+04 -0.1567561E+01  0.2429597E-04 -0.7142148E+00  0.8013061E+04 -0.2344506E-01  0.3088720E-03  0.2243337E-02  0.2799855E+03  0.1574034E+01  0.2865998E-04 -0.2928902E+01
  0.1560000E+01  0.2230448E+04 -0.1567467E+01  0.1504430E-02 -0.3138185E+01  0.7988284E+04 -0.2393816E-01  0.1425941E-03 -0.3124976E+01  0.2827343E+03  0.1574128E+01  0.2415636E-04  0.2333511E+01
  0.1570000E+01  0.2250969E+04 -0.1567371E+01  0.7112722E-05 -0.6904492E+00  0.7963662E+04 -0.2444216E-01  0.2217747E-03  0.2022580E-01  0.2855060E+03  0.1574223E+01  0.2623749E-04 -0.1541260E+01
  0.1580000E+01  0.2271635E+04 -0.1567273E+01  0.1148247E-02  0.6332971E-02  0.7938819E+04 -0.2495824E-01  0.5291742E-03 -0.3949332E-02  0.2883026E+03  0.1574321E+01  0.2990254E-04  0.3457055E+00
  0.1590000E+01  0.2292402E+04 -0.1567171E+01  0.4763617E-03 -0.2377372E-02  0.7913817E+04 -0.2548655E-01  0.1018858E-03 -0.3990123E-01  0.2911183E+03  0.1574425E+01  0.1213189E-03  0.1551143E+01
  0.1600000E+01  0.2313329E+04 -0.1567068E+01  0.9844321E-03 -0.2119176E-02  0.7888545E+04 -0.2602853E-01  0.2181743E-03  0.3127625E+01  0.2939582E+03  0.1574527E+01  0.4065041E-04 -0.1390943E+01
  0.1610000E+01  0.2334424E+04 -0.1566960E+01  0.3042865E-03 -0.2056921E-01  0.7863528E+04 -0.2658642E-01  0.3032743E-03  0.6203242E-02  0.2968237E+03  0.1574633E+01  0.1108016E-03  0.1781063E+01
  0.1620000E+01  0.2355658E+04 -0.1566850E+01  0.8779034E-03 -0.2546312E-01  0.7837990E+04 -0.2716012E-01  0.1807238E-03  0.3136233E+01  0.2997132E+03  0.1574744E+01  0.3929362E-04  0.3555749E+00
  0.1630000E+01  0.2377077E+04 -0.1566737E+01  0.8685827E-03 -0.3117023E+01  0.7812462E+04 -0.2772574E-01  0.3776551E-03  0.4931772E-04  0.3026324E+03  0.1574858E+01  0.7167696E-04  0.1612387E+01
  0.1640000E+01  0.2398596E+04 -0.1566620E+01  0.5819966E-03  0.3077130E+01  0.7786794E+04 -0.2830436E-01  0.7279665E-04  0.3095007E+01  0.3055940E+03  0.1574975E+01  0.2500827E-04  0.2139627E+01
  0.1650000E+01  0.2420220E+04 -0.1566499E+01  0.1179842E-02 -0.3125831E+01  0.7760904E+04 -0.2889773E-01  0.1907509E-03 -0.3103930E+01  0.3085756E+03  0.1575096E+01  0.1032629E-03 -0.1308037E+01