VARIABLES="Period (s)" "|Fx| (N/m)" "|Fy| (N/m)" "|Fz| (N/m)" "|Cx| (N)" "|Cy| (N)" "|Cz| (N)" "ang(Fx) (°)" "ang(Fy) (°)" "ang(Fz) (°)" "ang(Cx) (°)" "ang(Cy) (°)" "ang(Cz) (°)"
Zone t="Corps  1"
Zone t="Diffraction force - beta =   0.000 deg",I=   286,F=POINT
 0.1500  0.177060E+03  0.274262E-02  0.100339E+05  0.441635E-05  0.213774E+02  0.383823E-04    0.00   89.99  -89.99 -269.86 -180.00  -83.61
 0.1600  0.188859E+03  0.846965E-03  0.100311E+05  0.210713E-05  0.228233E+02  0.171907E-04    0.00   89.96  -89.99  -88.78 -180.00   87.24
 0.1700  0.201377E+03  0.992344E-03  0.100280E+05  0.197484E-04  0.243391E+02  0.230991E-04    0.00   89.90  -89.99  -89.55 -180.00 -262.06
 0.1800  0.212549E+03  0.767089E-03  0.100248E+05  0.122957E-03  0.256845E+02  0.534090E-04    0.00 -269.97  -89.99  -89.92 -180.00   88.43
 0.1900  0.225266E+03  0.148159E-02  0.100214E+05  0.346822E-05  0.272253E+02  0.970203E-05    0.00  -90.00  -89.99 -267.35 -180.00 -259.29
 0.2000  0.236680E+03  0.660580E-03  0.100178E+05  0.382681E-04  0.286097E+02  0.152299E-04    0.00  -90.06  -89.99   89.87 -180.00   61.10
 0.2100  0.248762E+03  0.154981E-02  0.100140E+05  0.785701E-04  0.300792E+02  0.171518E-04    0.00 -269.98  -89.99  -89.98 -180.00   88.06
 0.2200  0.260603E+03  0.621587E-03  0.100100E+05  0.894275E-04  0.315306E+02  0.342152E-04    0.00  -89.94  -89.99   89.94 -180.00   71.38
 0.2300  0.272430E+03  0.162141E-02  0.100060E+05  0.534840E-04  0.329311E+02  0.288642E-04    0.00  -89.98  -89.98  -89.94 -180.00 -262.45
 0.2400  0.284556E+03  0.226631E-02  0.100017E+05  0.627356E-05  0.344032E+02  0.124574E-04    0.00 -269.98  -89.98 -267.17 -180.00 -246.60
 0.2500  0.296181E+03  0.623392E-03  0.999723E+04  0.116937E-04  0.358130E+02  0.324905E-04    0.00  -89.86  -89.98   89.89 -180.00   69.80
 0.2600  0.308073E+03  0.237551E-02  0.999259E+04  0.425806E-04  0.372529E+02  0.208497E-04    0.00  -90.00  -89.98  -90.29 -180.00 -113.26
 0.2700  0.320023E+03  0.167111E-03  0.998776E+04  0.187777E-05  0.387087E+02  0.231325E-04    0.00  -90.28  -89.98 -103.07 -180.00 -262.47
 0.2800  0.332147E+03  0.706114E-03  0.998273E+04  0.796997E-05  0.401914E+02  0.439335E-04    0.00   89.95  -89.98 -267.91 -180.00  -91.72
 0.2900  0.344277E+03  0.127278E-02  0.997750E+04  0.298399E-04  0.416812E+02  0.162396E-04    0.00  -90.07  -89.97 -269.71 -180.00  -69.99
 0.3000  0.356357E+03  0.202269E-03  0.997216E+04  0.640490E-04  0.431350E+02  0.331895E-04    0.00 -269.85  -89.97  -90.09 -180.00 -112.95
 0.3100  0.368425E+03  0.247676E-02  0.996666E+04  0.194168E-04  0.445785E+02  0.104770E-04    0.00   90.00  -89.97  -90.46 -180.00 -158.91
 0.3200  0.380547E+03  0.331397E-03  0.996098E+04  0.386727E-04  0.460565E+02  0.935955E-04    0.00   89.78  -89.97  -90.26 -180.00 -265.68
 0.3300  0.392626E+03  0.116739E-02  0.995513E+04  0.705384E-04  0.475232E+02  0.184651E-04    0.00 -269.90  -89.97  -89.99 -180.00  -55.83
 0.3400  0.404733E+03  0.263633E-03  0.994911E+04  0.225157E-05  0.489872E+02  0.423162E-04    0.00  -89.79  -89.96   87.91 -180.00  -97.69
 0.3500  0.416788E+03  0.672538E-04  0.994287E+04  0.436556E-04  0.504526E+02  0.211516E-04    0.00 -269.31  -89.96  -90.63 -180.00  -64.46
 0.3600  0.428880E+03  0.665533E-03  0.993646E+04  0.867181E-04  0.519284E+02  0.210903E-04    0.00  -90.16  -89.96   89.75 -180.00 -212.25
 0.3700  0.441004E+03  0.778206E-05  0.992985E+04  0.437051E-04  0.534112E+02  0.413389E-04    0.00  -73.99  -89.96   89.99 -180.00  -75.51
 0.3800  0.453059E+03  0.344221E-03  0.992305E+04  0.724049E-04  0.548954E+02  0.286869E-04    0.00  -89.73  -89.96  -89.89 -180.00  -59.78
 0.3900  0.465203E+03  0.169706E-02  0.991606E+04  0.327396E-04  0.563836E+02  0.115696E-04    0.00 -269.94  -89.95   89.41 -180.00   86.53
 0.4000  0.477277E+03  0.455618E-03  0.990903E+04  0.549406E-04  0.578306E+02  0.206986E-04    0.00  -89.95  -89.95  -89.97 -180.00 -244.91
 0.4100  0.489386E+03  0.330280E-04  0.990181E+04  0.275300E-04  0.592904E+02  0.433173E-04    0.00   86.79  -89.95 -269.81 -180.00 -255.31
 0.4200  0.501564E+03  0.822738E-03  0.989440E+04  0.395123E-04  0.607837E+02  0.844564E-04    0.00  -89.94  -89.94   89.45 -180.00   85.93
 0.4300  0.513795E+03  0.299768E-03  0.988683E+04  0.223009E-04  0.622839E+02  0.186375E-04    0.00  -90.15  -89.94 -269.39 -180.01 -149.17
 0.4400  0.526153E+03  0.112035E-02  0.987907E+04  0.928535E-05  0.637912E+02  0.458010E-04    0.00  -90.15  -89.94 -267.42 -180.00  -89.42
 0.4500  0.538528E+03  0.102075E-02  0.987112E+04  0.185669E-04  0.653017E+02  0.254687E-04   -0.01 -269.94  -89.94   89.95 -180.01  -74.94
 0.4600  0.550943E+03  0.570139E-03  0.986302E+04  0.409713E-04  0.668211E+02  0.263447E-04   -0.01  -89.51  -89.93  -90.30 -180.01 -111.36
 0.4700  0.563398E+03  0.728190E-03  0.985469E+04  0.146203E-03  0.683477E+02  0.744162E-04   -0.01  -89.97  -89.93 -269.90 -180.01 -267.31
 0.4800  0.575889E+03  0.537515E-03  0.984619E+04  0.149884E-03  0.698796E+02  0.641312E-04   -0.01  -89.93  -89.93  -89.87 -180.01   67.36
 0.4900  0.588419E+03  0.254515E-03  0.983750E+04  0.263639E-04  0.714203E+02  0.225837E-04   -0.01  -90.30  -89.92  -90.97 -180.01   69.33
 0.5000  0.600919E+03  0.321469E-04  0.982864E+04  0.302644E-04  0.729640E+02  0.457466E-05   -0.01   87.98  -89.92 -269.83 -180.01   -0.09
 0.5100  0.613427E+03  0.359766E-03  0.981957E+04  0.124112E-03  0.745055E+02  0.877677E-04   -0.01 -269.37  -89.92  -89.96 -180.01 -267.11
 0.5200  0.625936E+03  0.703545E-03  0.981042E+04  0.315917E-04  0.760296E+02  0.120878E-04   -0.01 -269.89  -89.91   89.50 -180.01   70.78
 0.5300  0.638387E+03  0.595302E-03  0.980116E+04  0.947567E-04  0.775307E+02  0.302716E-04   -0.01 -269.95  -89.91  -90.12 -180.01  -71.19
 0.5400  0.650870E+03  0.250343E-03  0.979171E+04  0.436158E-04  0.790467E+02  0.374889E-04   -0.01  -89.69  -89.91   89.89 -180.01   66.21
 0.5500  0.663397E+03  0.261071E-03  0.978206E+04  0.129625E-04  0.805884E+02  0.357717E-04   -0.01  -90.91  -89.90  -92.60 -180.01 -126.89
 0.5600  0.675951E+03  0.354860E-03  0.977230E+04  0.626787E-04  0.821396E+02  0.431537E-04   -0.01   89.73  -89.90  -89.32 -180.01 -258.12
 0.5700  0.688543E+03  0.655591E-03  0.976233E+04  0.786415E-06  0.836934E+02  0.309216E-05   -0.01 -269.99  -89.89 -154.16 -180.01 -145.01
 0.5800  0.701106E+03  0.941755E-03  0.975218E+04  0.852207E-04  0.852353E+02  0.387984E-04   -0.01  -89.90  -89.89 -269.73 -180.01 -202.87
 0.5900  0.713674E+03  0.205675E-02  0.974187E+04  0.188486E-06  0.867815E+02  0.330550E-04   -0.01  -89.89  -89.89 -251.57 -180.01 -200.56
 0.6000  0.726292E+03  0.809126E-03  0.973137E+04  0.134694E-03  0.883403E+02  0.617917E-04   -0.01  -90.43  -89.88  -90.32 -180.01   68.08
 0.6100  0.738953E+03  0.134295E-03  0.972067E+04  0.456032E-04  0.899049E+02  0.116649E-04   -0.01  -90.51  -89.88   89.10 -180.01 -254.14
 0.6200  0.751658E+03  0.159192E-02  0.970980E+04  0.142699E-04  0.914783E+02  0.200737E-04   -0.01  -89.93  -89.87  -87.91 -180.01  -27.31
 0.6300  0.764415E+03  0.101745E-02  0.969871E+04  0.143172E-03  0.930608E+02  0.357039E-04   -0.01   89.91  -89.87 -269.76 -180.01   89.64
 0.6400  0.777224E+03  0.144002E-02  0.968750E+04  0.721813E-04  0.946513E+02  0.344771E-04   -0.01  -89.90  -89.86  -90.04 -180.01 -100.08
 0.6500  0.790082E+03  0.383735E-03  0.967606E+04  0.122223E-03  0.962612E+02  0.497138E-05   -0.01  -89.98  -89.86  -89.54 -180.01   26.33
 0.6600  0.802948E+03  0.117967E-02  0.966445E+04  0.160049E-04  0.978681E+02  0.545661E-05   -0.01 -269.82  -89.85  -89.33 -180.01 -257.86
 0.6700  0.815908E+03  0.169990E-02  0.965261E+04  0.163947E-04  0.994872E+02  0.606657E-04   -0.01   89.81  -89.85  -86.35 -180.01   75.93
 0.6800  0.828977E+03  0.683815E-03  0.964077E+04  0.111327E-03  0.101102E+03  0.130038E-04   -0.01  -89.91  -89.84   89.89 -180.01 -227.46
 0.6900  0.842077E+03  0.560613E-03  0.962880E+04  0.124127E-03  0.102705E+03  0.147079E-04   -0.01 -269.87  -89.84  -90.16 -180.01 -203.08
 0.7000  0.855206E+03  0.280117E-04  0.961678E+04  0.721147E-04  0.104310E+03  0.267143E-04   -0.01   84.14  -89.83   89.15 -180.01 -158.67
 0.7100  0.868405E+03  0.937455E-03  0.960445E+04  0.139484E-04  0.105945E+03  0.158668E-04   -0.02  -89.60  -89.83  -92.72 -180.02 -166.64
 0.7200  0.881660E+03  0.178579E-02  0.959198E+04  0.103775E-03  0.107600E+03  0.583310E-05   -0.02 -269.99  -89.82 -269.56 -180.02   76.11
 0.7300  0.894957E+03  0.311724E-03  0.957934E+04  0.113905E-03  0.109261E+03  0.337474E-04   -0.02  -90.68  -89.82 -269.88 -180.02 -263.92
 0.7400  0.908303E+03  0.105651E-03  0.956644E+04  0.184752E-03  0.110926E+03  0.461771E-04   -0.02  -89.68  -89.81  -90.52 -180.02 -263.03
 0.7500  0.921702E+03  0.209730E-03  0.955346E+04  0.951290E-04  0.112599E+03  0.705292E-04   -0.02  -90.59  -89.81   89.98 -180.02 -247.10
 0.7600  0.935043E+03  0.439173E-03  0.954032E+04  0.836061E-04  0.114249E+03  0.238081E-04   -0.02   89.71  -89.80   89.09 -180.02 -254.69
 0.7700  0.948441E+03  0.144680E-02  0.952698E+04  0.119043E-03  0.115919E+03  0.222927E-04   -0.02 -269.72  -89.79 -269.18 -180.02 -182.99
 0.7800  0.961893E+03  0.297062E-03  0.951347E+04  0.766831E-04  0.117599E+03  0.440029E-04   -0.02 -268.93  -89.79  -90.38 -180.02   59.56
 0.7900  0.975400E+03  0.253857E-03  0.949979E+04  0.220418E-03  0.119287E+03  0.239211E-04   -0.02  -89.89  -89.78  -90.11 -180.02  -10.19
 0.8000  0.988944E+03  0.390465E-04  0.948590E+04  0.155926E-03  0.120984E+03  0.299329E-04   -0.02   89.04  -89.77 -269.97 -180.02 -250.03
 0.8100  0.100252E+04  0.199254E-04  0.947185E+04  0.141829E-03  0.122687E+03  0.101879E-04   -0.02  -87.60  -89.77  -89.92 -180.02 -108.06
 0.8200  0.101614E+04  0.175840E-02  0.945761E+04  0.156909E-03  0.124398E+03  0.409902E-04   -0.02   89.94  -89.76  -90.04 -180.02 -205.54
 0.8300  0.102982E+04  0.675383E-03  0.944318E+04  0.962916E-04  0.126118E+03  0.362700E-04   -0.02  -90.16  -89.75 -269.87 -180.02 -147.55
 0.8400  0.104353E+04  0.139344E-02  0.942859E+04  0.965945E-04  0.127854E+03  0.463716E-04   -0.02  -89.99  -89.75   89.41 -180.02 -124.84
 0.8500  0.105726E+04  0.607550E-03  0.941381E+04  0.105901E-03  0.129596E+03  0.206513E-04   -0.02   89.99  -89.74   89.10 -180.02  -14.46
 0.8600  0.107101E+04  0.290487E-03  0.939883E+04  0.364486E-04  0.131339E+03  0.201548E-04   -0.03  -88.14  -89.73 -269.74 -180.03 -133.32
 0.8700  0.108483E+04  0.103062E-02  0.938365E+04  0.687340E-04  0.133093E+03  0.636321E-04   -0.03  -89.97  -89.72  -90.97 -180.03 -192.44
 0.8800  0.109866E+04  0.697255E-03  0.936849E+04  0.942953E-04  0.134830E+03  0.330687E-04   -0.03  -90.02  -89.72  -89.76 -180.03 -166.08
 0.8900  0.111251E+04  0.140995E-02  0.935328E+04  0.877084E-04  0.136555E+03  0.219319E-04   -0.03   89.86  -89.71  -90.11 -180.03 -175.87
 0.9000  0.112638E+04  0.120605E-02  0.933791E+04  0.914642E-04  0.138280E+03  0.340735E-04   -0.03  -90.23  -89.70  -90.25 -180.03   81.25
 0.9100  0.114035E+04  0.593854E-03  0.932235E+04  0.383918E-04  0.140027E+03  0.776401E-05   -0.03 -269.62  -89.69  -88.95 -180.03  -35.15
 0.9200  0.115439E+04  0.673449E-03  0.930666E+04  0.151817E-03  0.141801E+03  0.451875E-04   -0.03  -89.41  -89.69  -89.59 -180.03 -156.36
 0.9300  0.116852E+04  0.375575E-03  0.929075E+04  0.353996E-04  0.143597E+03  0.271195E-04   -0.03  -91.07  -89.68 -267.88 -180.03 -174.64
 0.9400  0.118269E+04  0.909925E-03  0.927469E+04  0.140377E-04  0.145402E+03  0.402045E-04   -0.03   89.94  -89.67   89.39 -180.03   38.89
 0.9500  0.119693E+04  0.652816E-03  0.925850E+04  0.930768E-05  0.147216E+03  0.562402E-04   -0.03  -89.49  -89.66  -87.43 -180.03   25.52
 0.9600  0.121122E+04  0.202609E-02  0.924212E+04  0.103772E-03  0.149035E+03  0.321004E-04   -0.03  -90.16  -89.65   89.98 -180.03 -185.01
 0.9700  0.122562E+04  0.730535E-03  0.922562E+04  0.307415E-03  0.150867E+03  0.406079E-04   -0.04   89.15  -89.64  -89.72 -180.04   12.93
 0.9800  0.123999E+04  0.310064E-02  0.920884E+04  0.865478E-04  0.152682E+03  0.451815E-04   -0.04   89.95  -89.63   88.45 -180.04   45.11
 0.9900  0.125447E+04  0.158788E-03  0.919195E+04  0.951380E-05  0.154531E+03  0.272434E-04   -0.04  -84.33  -89.62   84.97 -180.04   26.09
 1.0000  0.126906E+04  0.679035E-04  0.917489E+04  0.290825E-04  0.156393E+03  0.567292E-04   -0.04   84.00  -89.61  -86.47 -180.04 -168.91
 1.0100  0.128377E+04  0.137055E-02  0.915762E+04  0.590170E-05  0.158272E+03  0.242776E-04   -0.04 -269.84  -89.60   79.97 -180.04   18.84
 1.0200  0.129867E+04  0.423617E-03  0.914023E+04  0.107507E-03  0.160176E+03  0.390537E-04   -0.04  -90.31  -89.59 -269.21 -180.04 -103.91
 1.0300  0.131363E+04  0.817187E-03  0.912264E+04  0.621723E-04  0.162094E+03  0.330334E-04   -0.04   89.75  -89.58 -269.30 -180.04  -65.42
 1.0400  0.132868E+04  0.206310E-02  0.910489E+04  0.120527E-03  0.164025E+03  0.259664E-04   -0.04   89.90  -89.57  -90.59 -180.04  -21.97
 1.0500  0.134381E+04  0.395978E-04  0.908693E+04  0.318474E-03  0.165969E+03  0.387549E-04   -0.04 -113.98  -89.56  -89.63 -180.04 -170.62
 1.0600  0.135903E+04  0.979783E-03  0.906882E+04  0.325265E-03  0.167926E+03  0.250070E-04   -0.05  -89.88  -89.55  -90.20 -180.05 -260.67
 1.0700  0.137430E+04  0.258041E-03  0.905057E+04  0.801850E-04  0.169900E+03  0.460319E-04   -0.05   87.47  -89.54   88.83 -180.05 -132.98
 1.0800  0.138963E+04  0.261093E-04  0.903211E+04  0.207484E-03  0.171891E+03  0.268739E-04   -0.05 -269.22  -89.53   89.86 -180.05  -21.67
 1.0900  0.140495E+04  0.297097E-03  0.901343E+04  0.107713E-03  0.173876E+03  0.282121E-04   -0.05 -269.22  -89.52  -89.35 -180.05  -60.51
 1.1000  0.142037E+04  0.176895E-02  0.899457E+04  0.131498E-03  0.175876E+03  0.619362E-04   -0.05  -89.84  -89.50  -88.13 -180.05 -174.31
 1.1100  0.143586E+04  0.897212E-03  0.897550E+04  0.125056E-03  0.177888E+03  0.510521E-04   -0.05   89.44  -89.49  -89.44 -180.05   33.04
 1.1200  0.145139E+04  0.125706E-03  0.895655E+04  0.818393E-04  0.179884E+03  0.341244E-04   -0.05   88.23  -89.48  -89.58 -180.06 -111.41
 1.1300  0.146714E+04  0.124868E-02  0.893761E+04  0.521319E-04  0.181892E+03  0.483995E-04   -0.06  -90.65  -89.47   85.56 -180.06 -247.10
 1.1400  0.148277E+04  0.367783E-03  0.891853E+04  0.141561E-03  0.183880E+03  0.464754E-04   -0.06  -89.37  -89.45 -269.87 -180.06 -192.07
 1.1500  0.149849E+04  0.281930E-02  0.889931E+04  0.112010E-03  0.185878E+03  0.503086E-04   -0.06 -269.96  -89.44  -89.13 -180.06   -0.54
 1.1600  0.151432E+04  0.537344E-03  0.887991E+04  0.217617E-03  0.187913E+03  0.458784E-04   -0.06  -88.49  -89.43 -269.97 -180.06  -84.37
 1.1700  0.153025E+04  0.651737E-03  0.886031E+04  0.123509E-03  0.189977E+03  0.631556E-04   -0.06  -89.55  -89.42  -89.34 -180.06  -31.91
 1.1800  0.154628E+04  0.274941E-03  0.884059E+04  0.361457E-03  0.192064E+03  0.262933E-04   -0.07 -267.40  -89.40 -269.49 -180.07 -249.43
 1.1900  0.156240E+04  0.139833E-03  0.882074E+04  0.277104E-03  0.194164E+03  0.353403E-04   -0.07  -87.63  -89.39   89.78 -180.07   44.83
 1.2000  0.157859E+04  0.221417E-03  0.880075E+04  0.100911E-03  0.196274E+03  0.129285E-04   -0.07  -92.21  -89.37  -89.80 -180.07 -235.61
 1.2100  0.159487E+04  0.576020E-03  0.878058E+04  0.380210E-05  0.198394E+03  0.168836E-04   -0.07  -89.89  -89.36 -256.40 -180.07   -9.35
 1.2200  0.161125E+04  0.375550E-03  0.876027E+04  0.716028E-04  0.200529E+03  0.579752E-04   -0.07  -91.67  -89.34  -88.73 -180.07 -223.38
 1.2300  0.162761E+04  0.410407E-03  0.873979E+04  0.695454E-04  0.202650E+03  0.361378E-04   -0.08 -268.81  -89.33  -92.09 -180.07   46.80
 1.2400  0.164406E+04  0.120108E-02  0.871920E+04  0.181150E-03  0.204783E+03  0.346950E-04   -0.08 -269.52  -89.31   89.35 -180.08  -11.70
 1.2500  0.166060E+04  0.119508E-02  0.869841E+04  0.234127E-03  0.206947E+03  0.203989E-04   -0.08   89.78  -89.30 -270.00 -180.08 -121.44
 1.2600  0.167724E+04  0.127747E-02  0.867747E+04  0.208140E-03  0.209127E+03  0.281542E-04   -0.08 -269.68  -89.28 -269.86 -180.08   10.12
 1.2700  0.169401E+04  0.611701E-03  0.865640E+04  0.196994E-03  0.211325E+03  0.510292E-04   -0.08  -90.64  -89.27   89.82 -180.08 -214.51
 1.2800  0.171085E+04  0.121871E-03  0.863513E+04  0.109792E-03  0.213535E+03  0.259622E-04   -0.09 -266.13  -89.25 -269.79 -180.09 -150.88
 1.2900  0.172780E+04  0.857723E-03  0.861370E+04  0.137452E-03  0.215765E+03  0.198932E-04   -0.09 -269.69  -89.23 -269.58 -180.09 -182.23
 1.3000  0.174484E+04  0.387743E-03  0.859215E+04  0.322355E-03  0.218012E+03  0.519023E-04   -0.09  -92.70  -89.21 -269.48 -180.09 -132.21
 1.3100  0.176198E+04  0.102187E-02  0.857032E+04  0.299108E-03  0.220274E+03  0.508900E-04   -0.09  -90.23  -89.20  -90.50 -180.09    4.64
 1.3200  0.177927E+04  0.226899E-02  0.854845E+04  0.247671E-04  0.222559E+03  0.487137E-04   -0.10  -90.47  -89.18  -82.53 -180.10   85.72
 1.3300  0.179666E+04  0.134957E-02  0.852636E+04  0.282531E-03  0.224860E+03  0.223015E-04   -0.10  -90.03  -89.16   89.66 -180.10 -123.22
 1.3400  0.181417E+04  0.517690E-03  0.850414E+04  0.863683E-04  0.227189E+03  0.401452E-04   -0.10 -266.17  -89.14  -90.30 -180.10 -207.02
 1.3500  0.183174E+04  0.983718E-03  0.848168E+04  0.677129E-04  0.229540E+03  0.624992E-04   -0.11  -90.13  -89.12  -89.55 -180.11 -212.28
 1.3600  0.184936E+04  0.400616E-03  0.845910E+04  0.251695E-03  0.231893E+03  0.300212E-04   -0.11   88.91  -89.10 -268.93 -180.11 -241.35
 1.3700  0.186709E+04  0.158527E-02  0.843628E+04  0.333255E-03  0.234265E+03  0.882526E-04   -0.11  -90.29  -89.08 -269.67 -180.11    5.43
 1.3800  0.188493E+04  0.540444E-03  0.841326E+04  0.691444E-04  0.236654E+03  0.928147E-04   -0.12  -92.28  -89.06 -269.47 -180.12   11.11
 1.3900  0.190292E+04  0.521586E-03  0.839017E+04  0.998357E-04  0.239061E+03  0.829525E-04   -0.12   87.75  -89.04 -266.59 -180.12   52.90
 1.4000  0.192096E+04  0.504264E-03  0.836758E+04  0.126840E-03  0.241432E+03  0.502702E-04   -0.12  -90.33  -89.02  -87.50 -180.12   42.98
 1.4100  0.193910E+04  0.510316E-03  0.834486E+04  0.522037E-03  0.243808E+03  0.858832E-04   -0.13 -268.86  -89.00  -90.50 -180.13  -80.71
 1.4200  0.195736E+04  0.126354E-02  0.832201E+04  0.178576E-03  0.246196E+03  0.235111E-04   -0.13 -269.56  -88.98  -90.04 -180.13 -153.82
 1.4300  0.197577E+04  0.144256E-02  0.829906E+04  0.141617E-04  0.248604E+03  0.723226E-04   -0.13  -90.14  -88.95 -101.29 -180.13 -182.17
 1.4400  0.199442E+04  0.152122E-02  0.827590E+04  0.917680E-04  0.251076E+03  0.754913E-04   -0.14   89.32  -88.93   88.39 -180.14   12.08
 1.4500  0.201333E+04  0.132586E-02  0.825253E+04  0.542469E-04  0.253593E+03  0.475641E-04   -0.14  -89.76  -88.91 -269.10 -180.14 -199.55
 1.4600  0.203246E+04  0.123217E-02  0.822921E+04  0.289222E-03  0.256157E+03  0.467821E-04   -0.14   88.02  -88.89  -92.43 -180.14 -189.98
 1.4700  0.205171E+04  0.222134E-03  0.820568E+04  0.165076E-03  0.258741E+03  0.631932E-04   -0.15 -268.82  -88.86 -268.89 -180.15 -210.87
 1.4800  0.207109E+04  0.562132E-03  0.818172E+04  0.169981E-03  0.261345E+03  0.683958E-04   -0.15  -89.16  -88.84 -267.46 -180.15   23.03
 1.4900  0.209061E+04  0.492187E-03  0.815828E+04  0.125481E-03  0.263964E+03  0.507764E-04   -0.16 -268.90  -88.81   89.15 -180.16   22.06
 1.5000  0.211028E+04  0.200598E-02  0.813421E+04  0.205648E-03  0.266604E+03  0.492239E-04   -0.16  -89.61  -88.79   89.37 -180.16 -193.80
 1.5100  0.213008E+04  0.522396E-03  0.811000E+04  0.225216E-03  0.269262E+03  0.507009E-04   -0.17  -90.52  -88.76 -269.07 -180.17 -142.74
 1.5200  0.214985E+04  0.461893E-03  0.808631E+04  0.828951E-04  0.271892E+03  0.451662E-04   -0.17  -87.88  -88.74  -88.12 -180.17 -182.57
 1.5300  0.216976E+04  0.129155E-02  0.806183E+04  0.644213E-04  0.274555E+03  0.634606E-04   -0.18 -269.59  -88.71   85.87 -180.18 -176.77
 1.5400  0.218984E+04  0.509620E-03  0.803743E+04  0.181226E-03  0.277259E+03  0.717782E-04   -0.18  -88.76  -88.68  -91.00 -180.18   21.94
 1.5500  0.221007E+04  0.242960E-04  0.801306E+04  0.308872E-03  0.279986E+03  0.286600E-04   -0.19  -49.08  -88.66  -90.13 -180.19   77.81
 1.5600  0.223045E+04  0.150443E-02  0.798828E+04  0.142594E-03  0.282734E+03  0.241564E-04   -0.19   89.80  -88.63   89.05 -180.19 -223.70
 1.5700  0.225097E+04  0.711272E-05  0.796366E+04  0.221775E-03  0.285506E+03  0.262375E-04   -0.20  -50.44  -88.60  -91.16 -180.20   -1.69
 1.5800  0.227164E+04  0.114825E-02  0.793882E+04  0.529174E-03  0.288303E+03  0.299025E-04   -0.20  -90.36  -88.57  -89.77 -180.20 -109.81
 1.5900  0.229240E+04  0.476362E-03  0.791382E+04  0.101886E-03  0.291118E+03  0.121319E-03   -0.21  -89.86  -88.54  -87.71 -180.21 -178.87
 1.6000  0.231333E+04  0.984432E-03  0.788855E+04  0.218174E-03  0.293958E+03  0.406504E-04   -0.21  -89.88  -88.51 -269.20 -180.21  -10.30
 1.6100  0.233442E+04  0.304286E-03  0.786353E+04  0.303274E-03  0.296824E+03  0.110802E-03   -0.22  -88.82  -88.48  -90.36 -180.22 -192.05
 1.6200  0.235566E+04  0.877903E-03  0.783799E+04  0.180724E-03  0.299713E+03  0.392936E-04   -0.23  -88.54  -88.44 -269.69 -180.23 -110.37
 1.6300  0.237708E+04  0.868583E-03  0.781246E+04  0.377655E-03  0.302632E+03  0.716770E-04   -0.23   88.59  -88.41  -90.00 -180.23 -182.38
 1.6400  0.239860E+04  0.581997E-03  0.778679E+04  0.727966E-04  0.305594E+03  0.250083E-04   -0.24 -266.31  -88.38 -267.33 -180.24 -212.59
 1.6500  0.242022E+04  0.117984E-02  0.776090E+04  0.190751E-03  0.308576E+03  0.103263E-03   -0.25   89.10  -88.34   87.84 -180.25  -15.05
 1.6600  0.244190E+04  0.143964E-02  0.773497E+04  0.412494E-04  0.311555E+03  0.524895E-04   -0.25  -92.16  -88.31   89.31 -180.25 -124.24
 1.6700  0.246373E+04  0.375793E-03  0.770881E+04  0.534124E-03  0.314558E+03  0.476386E-04   -0.26   83.17  -88.27 -269.10 -180.26 -242.67
 1.6800  0.248570E+04  0.207564E-03  0.768240E+04  0.302332E-03  0.317587E+03  0.199911E-03   -0.27 -264.12  -88.24 -266.01 -180.27 -176.89
 1.6900  0.250781E+04  0.389496E-03  0.765605E+04  0.139717E-03  0.320624E+03  0.638273E-04   -0.28  -93.27  -88.20   89.59 -180.28 -219.14
 1.7000  0.253000E+04  0.705018E-03  0.763054E+04  0.703093E-04  0.323615E+03  0.385904E-04   -0.28   89.64  -88.16 -267.02 -180.28  -49.73
 1.7100  0.255224E+04  0.284508E-04  0.760500E+04  0.122866E-03  0.326606E+03  0.918455E-04   -0.29   50.44  -88.13 -262.14 -180.29  -15.89
 1.7200  0.257460E+04  0.210863E-03  0.757918E+04  0.345694E-03  0.329609E+03  0.484277E-04   -0.30  -99.99  -88.09  -88.58 -180.30  -91.97
 1.7300  0.259712E+04  0.257866E-02  0.755342E+04  0.225208E-03  0.332630E+03  0.434179E-04   -0.31 -269.36  -88.06   89.21 -180.31  -10.60
 1.7400  0.261971E+04  0.846274E-03  0.752687E+04  0.306051E-03  0.335701E+03  0.134839E-04   -0.32  -91.68  -88.02  -89.07 -180.32   47.96
 1.7500  0.264261E+04  0.711293E-04  0.750088E+04  0.201737E-04  0.338837E+03  0.683610E-04   -0.33 -223.40  -87.98  -70.99 -180.33 -199.67
 1.7600  0.266588E+04  0.147611E-02  0.747524E+04  0.137524E-03  0.342051E+03  0.143821E-03   -0.33  -91.15  -87.94 -268.10 -180.34 -195.38
 1.7700  0.268914E+04  0.103976E-02  0.744946E+04  0.264274E-03  0.345271E+03  0.418901E-04   -0.34  -91.28  -87.90  -91.63 -180.34  -39.60
 1.7800  0.271255E+04  0.680416E-03  0.742301E+04  0.524163E-03  0.348516E+03  0.225586E-04   -0.35   88.58  -87.86 -270.00 -180.35    8.82
 1.7900  0.273610E+04  0.125599E-03  0.739682E+04  0.535364E-04  0.351777E+03  0.173070E-04   -0.36   84.09  -87.82   79.80 -180.36   87.14
 1.8000  0.275986E+04  0.514877E-03  0.737064E+04  0.135983E-03  0.355068E+03  0.313580E-04   -0.37  -96.65  -87.78   84.79 -180.37 -183.71
 1.8100  0.278379E+04  0.869515E-03  0.734407E+04  0.441183E-04  0.358386E+03  0.307618E-04   -0.38  -94.25  -87.74 -262.59 -180.38   26.96
 1.8200  0.280776E+04  0.650830E-03  0.731746E+04  0.405439E-03  0.361694E+03  0.435002E-05   -0.39   88.63  -87.70   89.64 -180.40  -58.16
 1.8300  0.283179E+04  0.152486E-02  0.729116E+04  0.173580E-04  0.364987E+03  0.642539E-04   -0.41  -89.13  -87.65   84.75 -180.41 -224.68
 1.8400  0.285598E+04  0.474505E-03  0.726459E+04  0.491252E-04  0.368333E+03  0.425813E-04   -0.42   89.15  -87.61  -88.79 -180.42    4.17
 1.8500  0.288039E+04  0.158259E-03  0.723789E+04  0.731043E-04  0.371727E+03  0.821823E-04   -0.43 -264.75  -87.56   88.39 -180.43    8.26
 1.8600  0.290497E+04  0.786791E-03  0.721109E+04  0.186694E-03  0.375152E+03  0.822013E-04   -0.44  -89.71  -87.52  -90.67 -180.44 -161.13
 1.8700  0.292972E+04  0.338823E-03  0.718445E+04  0.283011E-03  0.378601E+03  0.114840E-03   -0.45 -265.63  -87.47  -90.43 -180.45 -195.84
 1.8800  0.295471E+04  0.122261E-02  0.715768E+04  0.804176E-03  0.382088E+03  0.365041E-04   -0.47 -269.93  -87.42  -89.06 -180.47 -253.10
 1.8900  0.297985E+04  0.840712E-03  0.713045E+04  0.345804E-03  0.385602E+03  0.936467E-04   -0.48   88.50  -87.38  -93.63 -180.48 -171.66
 1.9000  0.300522E+04  0.993678E-03  0.710352E+04  0.194324E-04  0.389156E+03  0.795384E-04   -0.49  -93.72  -87.33 -263.62 -180.49   14.14
 1.9100  0.303080E+04  0.167275E-02  0.707668E+04  0.517532E-05  0.392747E+03  0.590614E-04   -0.51  -89.94  -87.28 -173.39 -180.51 -244.18
 1.9200  0.305663E+04  0.693805E-03  0.704947E+04  0.207207E-03  0.396371E+03  0.845002E-04   -0.52 -267.39  -87.22  -87.13 -180.52   -8.11
 1.9300  0.308276E+04  0.827813E-03  0.702226E+04  0.765485E-04  0.400039E+03  0.140143E-04   -0.53   89.56  -87.17  -88.82 -180.53  -53.91
 1.9400  0.310925E+04  0.155163E-03  0.699490E+04  0.212388E-03  0.403758E+03  0.364968E-04   -0.55 -267.16  -87.12  -88.46 -180.55 -245.23
 1.9500  0.313609E+04  0.175265E-02  0.696760E+04  0.106888E-03  0.407553E+03  0.425309E-04   -0.56  -88.62  -87.06   87.83 -180.56   -2.25
 1.9600  0.316303E+04  0.171461E-02  0.694007E+04  0.385407E-03  0.411381E+03  0.778360E-04   -0.58  -89.26  -87.01  -89.77 -180.58   12.38
 1.9700  0.319004E+04  0.981342E-03  0.691232E+04  0.225840E-03  0.415215E+03  0.510442E-04   -0.60  -88.19  -86.95   88.70 -180.60 -199.65
 1.9800  0.321719E+04  0.778484E-03  0.688457E+04  0.625917E-03  0.419069E+03  0.327442E-04   -0.61   85.94  -86.89   89.15 -180.61 -188.37
 1.9900  0.324455E+04  0.799172E-04  0.685728E+04  0.447159E-03  0.422958E+03  0.435311E-04   -0.63 -241.29  -86.83   89.74 -180.63    1.73
 2.0000  0.327204E+04  0.157714E-02  0.682936E+04  0.760636E-03  0.426871E+03  0.314438E-04   -0.65   89.00  -86.77 -268.34 -180.65   22.75
 2.0100  0.329967E+04  0.136818E-03  0.680168E+04  0.423441E-03  0.430745E+03  0.124928E-03   -0.66 -107.60  -86.71  -90.39 -180.66 -172.71
 2.0200  0.332737E+04  0.229473E-03  0.677485E+04  0.371219E-03  0.434576E+03  0.478410E-04   -0.68 -262.85  -86.66  -89.85 -180.68 -222.48
 2.0300  0.335509E+04  0.151593E-03  0.674798E+04  0.435180E-03  0.438395E+03  0.934191E-04   -0.70  -56.30  -86.60   89.00 -180.70 -172.67
 2.0400  0.338297E+04  0.161373E-04  0.672117E+04  0.582112E-03  0.442229E+03  0.548744E-04   -0.72  -48.89  -86.55  -89.62 -180.72 -179.00
 2.0500  0.341103E+04  0.892514E-03  0.669456E+04  0.194685E-03  0.446090E+03  0.174037E-04   -0.74  -92.80  -86.49  -85.92 -180.74 -173.31
 2.0600  0.343937E+04  0.583903E-04  0.666776E+04  0.360176E-03  0.450058E+03  0.474716E-04   -0.76   53.55  -86.43   88.27 -180.76 -186.05
 2.0700  0.346786E+04  0.248444E-03  0.664081E+04  0.175770E-03  0.454067E+03  0.129953E-03   -0.78  -87.43  -86.37 -268.56 -180.78 -198.67
 2.0800  0.349658E+04  0.913287E-03  0.661367E+04  0.109077E-03  0.458149E+03  0.544330E-04   -0.80   85.35  -86.31  -89.77 -180.80 -134.80
 2.0900  0.352544E+04  0.144960E-03  0.658686E+04  0.526330E-03  0.462257E+03  0.887948E-04   -0.82   89.76  -86.25  -90.51 -180.82   -2.08
 2.1000  0.355439E+04  0.135110E-03  0.655966E+04  0.414288E-03  0.466383E+03  0.725523E-04   -0.84  -94.43  -86.19  -86.55 -180.84 -192.14
 2.1100  0.358353E+04  0.245121E-03  0.653278E+04  0.131996E-03  0.470527E+03  0.761995E-04   -0.86   84.87  -86.13  -83.00 -180.86 -174.97
 2.1200  0.361282E+04  0.464190E-03  0.650646E+04  0.295714E-03  0.474694E+03  0.597738E-04   -0.88  -84.50  -86.06 -267.92 -180.88 -175.88
 2.1300  0.364233E+04  0.680899E-03  0.647946E+04  0.979629E-04  0.478893E+03  0.238304E-04   -0.90   85.74  -86.00 -110.25 -180.90 -118.90
 2.1400  0.367190E+04  0.308188E-03  0.645257E+04  0.196511E-03  0.483101E+03  0.688847E-04   -0.93  -79.50  -85.94   88.66 -180.93 -181.59
 2.1500  0.370133E+04  0.671293E-03  0.642552E+04  0.306880E-03  0.487243E+03  0.991872E-04   -0.95  -91.94  -85.87 -269.13 -180.95   16.84
 2.1600  0.373089E+04  0.171845E-02  0.639868E+04  0.189562E-03  0.491421E+03  0.622864E-04   -0.97  -89.19  -85.80   87.01 -180.98 -203.58
 2.1700  0.376064E+04  0.224400E-02  0.637123E+04  0.629557E-03  0.495669E+03  0.482936E-04   -1.00   86.66  -85.74   89.63 -181.00  -23.42
 2.1800  0.379056E+04  0.196660E-02  0.634427E+04  0.350448E-03  0.499944E+03  0.206063E-04   -1.02  -90.64  -85.67  -94.17 -181.03   18.55
 2.1900  0.382061E+04  0.191693E-02  0.631786E+04  0.233012E-03  0.504237E+03  0.638696E-04   -1.05  -90.39  -85.60   80.53 -181.05   27.81
 2.2000  0.385083E+04  0.926352E-03  0.629092E+04  0.454552E-04  0.508562E+03  0.709114E-04   -1.08  -89.18  -85.53 -120.95 -181.08 -194.61
 2.2100  0.388115E+04  0.211276E-02  0.626343E+04  0.185997E-03  0.512908E+03  0.499206E-04   -1.10  -91.37  -85.46  -87.70 -181.10 -163.49
 2.2200  0.391164E+04  0.457945E-03  0.623691E+04  0.311116E-03  0.517297E+03  0.186067E-04   -1.13 -257.33  -85.39  -94.71 -181.13 -101.41
 2.2300  0.394223E+04  0.702202E-04  0.621004E+04  0.371382E-03  0.521714E+03  0.839742E-04   -1.16    5.06  -85.31 -263.13 -181.16   46.74
 2.2400  0.397295E+04  0.235512E-02  0.618281E+04  0.710603E-04  0.526157E+03  0.326366E-04   -1.19  -91.18  -85.24  -58.27 -181.19 -156.99
 2.2500  0.400390E+04  0.156234E-03  0.615615E+04  0.518990E-03  0.530634E+03  0.193312E-03   -1.22 -264.25  -85.17  -87.09 -181.22 -178.59
 2.2600  0.403493E+04  0.128023E-02  0.612904E+04  0.273467E-03  0.535134E+03  0.397969E-04   -1.25  -84.73  -85.09  -88.30 -181.25   -2.06