VARIABLES="w (rad/s)"
"abs(F   1   1)" "angle(F   1   1)"
"abs(F   1   2)" "angle(F   1   2)"
"abs(F   1   3)" "angle(F   1   3)"
"abs(F   1   4)" "angle(F   1   4)"
"abs(F   1   5)" "angle(F   1   5)"
"abs(F   1   6)" "angle(F   1   6)"
Zone t="FKforce - beta =   0.000",I=   286,F=POINT
  0.1500000E+00  0.1078242E+03 -0.1570797E+01  0.2742767E-02 -0.3141549E+01  0.1004409E+05 -0.5934299E-11  0.3814697E-05  0.3141593E+01  0.9060250E+01  0.1570879E+01  0.3819920E-04 -0.5229602E-01
  0.1600000E+00  0.1150339E+03 -0.1570787E+01  0.8468629E-03 -0.3141170E+01  0.1004257E+05  0.2967598E-11  0.1907873E-05 -0.2343321E-01  0.9666722E+01  0.1570848E+01  0.1731105E-04  0.3012113E+01
  0.1700000E+00  0.1222474E+03 -0.1570792E+01  0.9918215E-03 -0.3140872E+01  0.1004094E+05  0.0000000E+00  0.1907386E-04 -0.6249919E-02  0.1027367E+02  0.1570783E+01  0.2291473E-04  0.3093453E+01
  0.1800000E+00  0.1294656E+03 -0.1570794E+01  0.7667542E-03  0.3141126E+01  0.1003921E+05 -0.2968592E-11  0.1239778E-03 -0.1442307E-02  0.1088116E+02  0.1570793E+01  0.5375070E-04 -0.3028241E+01
  0.1900000E+00  0.1366882E+03 -0.1570792E+01  0.1480103E-02 -0.2818943E-03  0.1003737E+05 -0.1187654E-10  0.1912058E-05  0.3071396E+01  0.1148921E+02  0.1570735E+01  0.1074356E-04  0.2663058E+01
  0.2000000E+00  0.1439159E+03 -0.1570807E+01  0.6599426E-03 -0.9031792E-04  0.1003544E+05 -0.3801226E-09  0.3814697E-04  0.3141593E+01  0.1209785E+02  0.1570774E+01  0.1524624E-04 -0.2637722E+01
  0.2100000E+00  0.1511488E+03 -0.1570787E+01  0.1548767E-02 -0.3141323E+01  0.1003340E+05  0.0000000E+00  0.7820130E-04  0.3810975E-03  0.1270696E+02  0.1570779E+01  0.1723595E-04 -0.3051559E+01
  0.2200000E+00  0.1583870E+03 -0.1570802E+01  0.6217957E-03 -0.4792945E-03  0.1003128E+05  0.5941877E-11  0.8773806E-04 -0.3140913E+01  0.1331680E+02  0.1570768E+01  0.3369103E-04 -0.2866574E+01
  0.2300000E+00  0.1656313E+03 -0.1570799E+01  0.1621246E-02 -0.1470588E-03  0.1002905E+05 -0.1188640E-10  0.5340577E-04 -0.5580357E-03  0.1392740E+02  0.1570779E+01  0.2866983E-04  0.3077099E+01
  0.2400000E+00  0.1728811E+03 -0.1570796E+01  0.2265930E-02  0.3141461E+01  0.1002673E+05  0.0000000E+00  0.3824115E-05  0.3071396E+01  0.1453851E+02  0.1570763E+01  0.1198987E-04  0.2838708E+01
  0.2500000E+00  0.1801373E+03 -0.1570801E+01  0.6217961E-03 -0.1246165E-02  0.1002429E+05  0.0000000E+00  0.1144471E-04 -0.3131176E+01  0.1515044E+02  0.1570831E+01  0.3250984E-04 -0.2789689E+01
  0.2600000E+00  0.1874002E+03 -0.1570802E+01  0.2376556E-02 -0.2257223E-03  0.1002177E+05 -0.3865887E-09  0.4196273E-04  0.7102153E-02  0.1576313E+02  0.1570837E+01  0.2066677E-04  0.3952348E+00
  0.2700000E+00  0.1946698E+03 -0.1570794E+01  0.1678491E-03 -0.5326654E-02  0.1001915E+05  0.0000000E+00  0.3874302E-06  0.1570796E+01  0.1637664E+02  0.1570779E+01  0.2335559E-04  0.2941194E+01
  0.2800000E+00  0.2019465E+03 -0.1570799E+01  0.7057191E-03 -0.3141001E+01  0.1001643E+05  0.5950687E-11  0.7630850E-05  0.3122064E+01  0.1699097E+02  0.1570794E+01  0.4386984E-04 -0.6114054E-02
  0.2900000E+00  0.2092304E+03 -0.1570799E+01  0.1274109E-02  0.1871257E-03  0.1001361E+05  0.1190473E-10  0.3051781E-04  0.3137686E+01  0.1760608E+02  0.1570797E+01  0.1663141E-04 -0.4091271E+00
  0.3000000E+00  0.2165222E+03 -0.1570792E+01  0.2021790E-03  0.3141003E+01  0.1001070E+05 -0.5954097E-11  0.6675763E-04  0.3571413E-02  0.1822211E+02  0.1570797E+01  0.3445934E-04  0.4829876E+00
  0.3100000E+00  0.2238221E+03 -0.1570793E+01  0.2483368E-02  0.3141593E+01  0.1000767E+05  0.5955897E-11  0.1907463E-04  0.1093706E-01  0.1883904E+02  0.1570805E+01  0.6533985E-05  0.9473655E+00
  0.3200000E+00  0.2311297E+03 -0.1570799E+01  0.3318797E-03 -0.3139078E+01  0.1000455E+05 -0.5957755E-11  0.4005460E-04  0.3720221E-02  0.1945700E+02  0.1570784E+01  0.9369397E-04  0.3070920E+01
  0.3300000E+00  0.2384460E+03 -0.1570796E+01  0.1167297E-02 -0.3141184E+01  0.1000134E+05 -0.5959665E-11  0.7057192E-04 -0.8445944E-03  0.2007583E+02  0.1570796E+01  0.1537754E-04 -0.1243550E+00
  0.3400000E+00  0.2457708E+03 -0.1570795E+01  0.2632180E-03 -0.5434729E-02  0.9998029E+04  0.3576984E-10  0.1915712E-05 -0.3048116E+01  0.2069581E+02  0.1570815E+01  0.4283049E-04  0.2017623E+00
  0.3500000E+00  0.2531049E+03 -0.1570802E+01  0.7247925E-04  0.3141593E+01  0.9994603E+04 -0.7573878E-09  0.4387161E-04  0.1086914E-01  0.2131670E+02  0.1570802E+01  0.1952450E-04 -0.2153577E+00
  0.3600000E+00  0.2604481E+03 -0.1570802E+01  0.6675727E-03  0.1428570E-02  0.9991101E+04 -0.2982887E-10  0.8964579E-04 -0.3138601E+01  0.2193878E+02  0.1570782E+01  0.1249140E-04  0.2729182E+01
  0.3700000E+00  0.2678012E+03 -0.1570802E+01  0.3996623E-05 -0.3028849E+00  0.9987485E+04  0.0000000E+00  0.4386906E-04 -0.3140234E+01  0.2256193E+02  0.1570820E+01  0.4027104E-04 -0.1037923E+00
  0.3800000E+00  0.2751642E+03 -0.1570794E+01  0.3395086E-03 -0.1755616E-02  0.9983772E+04  0.1194031E-10  0.7057196E-04 -0.1266891E-02  0.2318619E+02  0.1570797E+01  0.2629808E-04 -0.3396698E+00
  0.3900000E+00  0.2825373E+03 -0.1570791E+01  0.1701355E-02 -0.3141453E+01  0.9979962E+04  0.7525264E-09  0.3051876E-04 -0.3132804E+01  0.2381167E+02  0.1570801E+01  0.1279488E-04  0.2677945E+01
  0.4000000E+00  0.2899208E+03 -0.1570794E+01  0.4615784E-03  0.0000000E+00  0.9976068E+04 -0.1194953E-10  0.5531314E-04  0.1077586E-02  0.2443846E+02  0.1570793E+01  0.1917464E-04  0.3038831E+01
  0.4100000E+00  0.2973152E+03 -0.1570806E+01  0.3435731E-04 -0.3103417E+01  0.9972061E+04  0.7650771E-09  0.2479560E-04 -0.3139189E+01  0.2506630E+02  0.1570808E+01  0.4214567E-04 -0.3048116E+01
  0.4200000E+00  0.3047206E+03 -0.1570796E+01  0.8239777E-03 -0.2748836E-02  0.9967952E+04  0.2391851E-10  0.3433481E-04 -0.3129441E+01  0.2569566E+02  0.1570806E+01  0.8399451E-04 -0.3100423E+01
  0.4300000E+00  0.3121372E+03 -0.1570801E+01  0.3013619E-03  0.2373413E-02  0.9963759E+04  0.0000000E+00  0.1907581E-04  0.3125969E+01  0.2632608E+02  0.1570804E+01  0.1100089E-04  0.5218343E+00
  0.4400000E+00  0.3195658E+03 -0.1570799E+01  0.1125340E-02  0.2648299E-02  0.9959451E+04  0.2393893E-10  0.1335796E-04  0.3110353E+01  0.2695806E+02  0.1570778E+01  0.4590672E-04 -0.7537775E-01
  0.4500000E+00  0.3270064E+03 -0.1570793E+01  0.1018525E-02 -0.3140422E+01  0.9955041E+04  0.0000000E+00  0.1716655E-04  0.3134648E+01  0.2759136E+02  0.1570810E+01  0.2479560E-04  0.2403842E-02
  0.4600000E+00  0.3344589E+03 -0.1570798E+01  0.5722064E-03 -0.2499995E-02  0.9950562E+04 -0.2396031E-10  0.4959106E-04  0.0000000E+00  0.2822593E+02  0.1570789E+01  0.2610554E-04  0.3181404E+00
  0.4700000E+00  0.3419247E+03 -0.1570800E+01  0.7324222E-03  0.9765622E-03  0.9945955E+04 -0.1198571E-10  0.1487732E-03  0.3141192E+01  0.2886237E+02  0.1570798E+01  0.7440955E-04 -0.3116758E+01
  0.4800000E+00  0.3494029E+03 -0.1570796E+01  0.5416870E-03  0.0000000E+00  0.9941270E+04  0.0000000E+00  0.1544953E-03 -0.7716048E-03  0.2950001E+02  0.1570779E+01  0.6076427E-04 -0.2908985E+01
  0.4900000E+00  0.3568943E+03 -0.1570796E+01  0.2555902E-03 -0.6529758E-02  0.9936473E+04 -0.2399429E-10  0.2670295E-04  0.2232139E-02  0.3013902E+02  0.1570809E+01  0.2191150E-04 -0.2849094E+01
  0.5000000E+00  0.3643993E+03 -0.1570798E+01  0.3434241E-04 -0.3117292E+01  0.9931592E+04  0.0000000E+00  0.2861079E-04  0.3135343E+01  0.3077997E+02  0.1570788E+01  0.2920628E-05  0.1570796E+01
  0.5100000E+00  0.3719188E+03 -0.1570796E+01  0.3585844E-03  0.3137603E+01  0.9926609E+04  0.0000000E+00  0.1220703E-03 -0.4882812E-03  0.3142234E+02  0.1570800E+01  0.8795675E-04  0.3071058E+01
  0.5200000E+00  0.3794511E+03 -0.1570800E+01  0.7019051E-03  0.3140064E+01  0.9921519E+04 -0.1201523E-10  0.2479582E-04 -0.3136785E+01  0.3206639E+02  0.1570778E+01  0.1295877E-04 -0.2653259E+01
  0.5300000E+00  0.3869989E+03 -0.1570796E+01  0.5950928E-03  0.3141392E+01  0.9916331E+04  0.0000000E+00  0.9727507E-04  0.2450976E-02  0.3271207E+02  0.1570801E+01  0.2956444E-04 -0.2547583E+00
  0.5400000E+00  0.3945611E+03 -0.1570796E+01  0.2479602E-03  0.6249919E-02  0.9911054E+04 -0.4811165E-10  0.3814865E-04 -0.3132218E+01  0.3335938E+02  0.1570786E+01  0.3692410E-04 -0.2764683E+01
  0.5500000E+00  0.4021390E+03 -0.1570794E+01  0.2517723E-03 -0.4261338E-02  0.9905646E+04  0.7702067E-09  0.9548657E-05  0.4995840E-01  0.3400848E+02  0.1570776E+01  0.3485501E-04  0.6079240E+00
  0.5600000E+00  0.4097321E+03 -0.1570794E+01  0.3547669E-03 -0.3140921E+01  0.9900195E+04 -0.3612332E-10  0.6485448E-04 -0.1194796E-01  0.3465948E+02  0.1570793E+01  0.4260761E-04  0.2967245E+01
  0.5700000E+00  0.4173408E+03 -0.1570793E+01  0.6599427E-03  0.3141231E+01  0.9894624E+04  0.0000000E+00  0.9563528E-05  0.7485985E-01  0.3531218E+02  0.1570793E+01  0.3389089E-05 -0.9730380E+00
  0.5800000E+00  0.4249664E+03 -0.1570795E+01  0.9574905E-03  0.1743026E-02  0.9888939E+04 -0.4821924E-10  0.8201816E-04  0.3134325E+01  0.3596695E+02  0.1570796E+01  0.2780645E-04  0.2151665E+01
  0.5900000E+00  0.4326083E+03 -0.1570797E+01  0.2063751E-02 -0.5776340E-03  0.9883180E+04  0.1206184E-10  0.7644281E-05  0.6241881E-01  0.3662336E+02  0.1570790E+01  0.4286204E-04  0.1841073E+01
  0.6000000E+00  0.4402663E+03 -0.1570794E+01  0.8201599E-03  0.0000000E+00  0.9877314E+04 -0.2413800E-10  0.1277927E-03  0.2332085E-02  0.3728207E+02  0.1570793E+01  0.6082350E-04 -0.2795668E+01
  0.6100000E+00  0.4479420E+03 -0.1570794E+01  0.1296999E-03 -0.1838233E-02  0.9871337E+04 -0.2415261E-10  0.3624452E-04 -0.3125147E+01  0.3794240E+02  0.1570793E+01  0.1740456E-04  0.2288338E+01
  0.6200000E+00  0.4556353E+03 -0.1570795E+01  0.1602173E-02  0.1488095E-03  0.9865277E+04 -0.1208372E-10  0.1716779E-04 -0.1388800E-01  0.3860490E+02  0.1570783E+01  0.1953323E-04 -0.1060734E+01
  0.6300000E+00  0.4633466E+03 -0.1570794E+01  0.1018524E-02  0.3141124E+01  0.9859100E+04 -0.2418259E-10  0.1468666E-03  0.3138346E+01  0.3926957E+02  0.1570793E+01  0.3883095E-04 -0.2774198E+01
  0.6400000E+00  0.4710764E+03 -0.1570802E+01  0.1438141E-02 -0.3315650E-03  0.9852861E+04  0.0000000E+00  0.6294262E-04  0.1893937E-02  0.3993623E+02  0.1570787E+01  0.3524908E-04  0.2285732E+00
  0.6500000E+00  0.4788243E+03 -0.1570794E+01  0.3700276E-03 -0.3221638E-02  0.9846499E+04  0.0000000E+00  0.1220712E-03 -0.3906230E-02  0.4060503E+02  0.1570815E+01  0.1384112E-04 -0.1709039E+01
  0.6600000E+00  0.4865904E+03 -0.1570799E+01  0.1190186E-02 -0.3140591E+01  0.9840044E+04  0.2422942E-10  0.5723287E-05  0.2083032E-01  0.4127608E+02  0.1570783E+01  0.9347103E-05 -0.2229602E+01
  0.6700000E+00  0.4943777E+03 -0.1570795E+01  0.1712799E-02 -0.3141314E+01  0.9833493E+04  0.1212278E-10  0.7688768E-05 -0.1243550E+00  0.4194925E+02  0.1570799E+01  0.5976477E-04 -0.2995464E+01
  0.6799999E+00  0.5021843E+03 -0.1570795E+01  0.6866456E-03 -0.3472222E-03  0.9826847E+04  0.1213098E-10  0.9918241E-04  0.3139189E+01  0.4262485E+02  0.1570808E+01  0.1143974E-04  0.2556480E+01
  0.6899999E+00  0.5100105E+03 -0.1570797E+01  0.5569466E-03  0.3139880E+01  0.9820096E+04 -0.1213932E-10  0.1297004E-03  0.3216901E-02  0.4330272E+02  0.1570796E+01  0.1112166E-04 -0.2111216E+01
  0.7000000E+00  0.5178566E+03 -0.1570801E+01  0.3433559E-04  0.3127705E+01  0.9813271E+04  0.0000000E+00  0.7058763E-04 -0.3120481E+01  0.4398281E+02  0.1570791E+01  0.1860429E-04  0.1032575E+01
  0.7099999E+00  0.5257235E+03 -0.1570796E+01  0.9384156E-03  0.5081301E-03  0.9806307E+04  0.1519549E-08  0.1716624E-04  0.3472208E-02  0.4466526E+02  0.1570807E+01  0.8851240E-05  0.1125219E+01
  0.7200000E+00  0.5336134E+03 -0.1570797E+01  0.1792908E-02 -0.3141194E+01  0.9799274E+04  0.1581465E-08  0.1106333E-03  0.3130279E+01  0.4535052E+02  0.1570789E+01  0.1696797E-04 -0.1914765E+01
  0.7300000E+00  0.5415237E+03 -0.1570800E+01  0.3242494E-03  0.7352940E-03  0.9792147E+04 -0.6086984E-10  0.1106285E-03  0.3135127E+01  0.4603791E+02  0.1570801E+01  0.3493056E-04 -0.2956245E+01
  0.7400000E+00  0.5494561E+03 -0.1570796E+01  0.9920046E-04 -0.1922840E-01  0.9784922E+04  0.2436592E-10  0.1831094E-03  0.6510325E-02  0.4672789E+02  0.1570778E+01  0.4932038E-04  0.2760189E+01
  0.7500000E+00  0.5574117E+03 -0.1570798E+01  0.1831069E-03  0.3906230E-02  0.9777589E+04  0.2438419E-10  0.1087189E-03  0.3141044E+01  0.4742078E+02  0.1570812E+01  0.6536942E-04  0.3015428E+01
  0.7600000E+00  0.5653897E+03 -0.1570800E+01  0.4615784E-03  0.3141593E+01  0.9770174E+04  0.0000000E+00  0.1029989E-03 -0.3135227E+01  0.4811583E+02  0.1570791E+01  0.2711795E-04  0.2575538E+01
  0.7700000E+00  0.5733911E+03 -0.1570796E+01  0.1449586E-02  0.3140277E+01  0.9762648E+04 -0.2442151E-10  0.1087261E-03  0.3130080E+01  0.4881376E+02  0.1570808E+01  0.2166102E-04  0.1658965E+01
  0.7800000E+00  0.5814163E+03 -0.1570795E+01  0.3013612E-03  0.3140801E+01  0.9755023E+04 -0.1515317E-08  0.7629627E-04  0.7812341E-02  0.4951476E+02  0.1570804E+01  0.4359362E-04 -0.2636353E+01
  0.7900000E+00  0.5894650E+03 -0.1570795E+01  0.2365189E-03 -0.8064342E-02  0.9747318E+04  0.1492055E-08  0.2384219E-03  0.5249952E-02  0.5021793E+02  0.1570799E+01  0.1331360E-04 -0.1280197E+01
  0.8000000E+00  0.5975383E+03 -0.1570793E+01  0.2671246E-04 -0.3114813E+01  0.9739491E+04  0.7343871E-10  0.1602184E-03  0.3137872E+01  0.5092407E+02  0.1570796E+01  0.2883288E-04  0.3017238E+01
  0.8099999E+00  0.6056363E+03 -0.1570799E+01  0.2622604E-05  0.1570796E+01  0.9731594E+04  0.0000000E+00  0.1487736E-03 -0.2403842E-02  0.5163346E+02  0.1570788E+01  0.9573181E-05 -0.8727771E-01
  0.8200001E+00  0.6137607E+03 -0.1570800E+01  0.1731874E-02  0.3140354E+01  0.9723598E+04  0.2451958E-10  0.1525879E-03 -0.7812498E-03  0.5234552E+02  0.1570799E+01  0.2928208E-04  0.2197198E+01
  0.8299999E+00  0.6219096E+03 -0.1570798E+01  0.6752021E-03  0.1412428E-02  0.9715490E+04  0.0000000E+00  0.1068116E-03  0.3140476E+01  0.5306039E+02  0.1570790E+01  0.2268393E-04  0.5719690E+00
  0.8400000E+00  0.6300858E+03 -0.1570792E+01  0.1396180E-02 -0.8538250E-03  0.9707290E+04  0.2456078E-10  0.9346039E-04 -0.3139042E+01  0.5377840E+02  0.1570804E+01  0.4140271E-04  0.3992208E+00
  0.8500000E+00  0.6382885E+03 -0.1570796E+01  0.5760205E-03  0.3139523E+01  0.9699002E+04  0.7374529E-10  0.1068139E-03 -0.3134896E+01  0.5449934E+02  0.1570791E+01  0.1290162E-04  0.1111281E+01
  0.8600000E+00  0.6465176E+03 -0.1570798E+01  0.2784730E-03  0.8561642E-03  0.9690624E+04  0.0000000E+00  0.3243041E-04  0.3123212E+01  0.5522350E+02  0.1570805E+01  0.1572840E-04  0.2449787E+00
  0.8700000E+00  0.6547752E+03 -0.1570796E+01  0.9956370E-03 -0.1436781E-02  0.9682150E+04 -0.4924910E-10  0.8202023E-04  0.1017407E-01  0.5595084E+02  0.1570796E+01  0.5193271E-04  0.1830807E+01
  0.8800000E+00  0.6630606E+03 -0.1570796E+01  0.6866514E-03  0.4166643E-02  0.9673560E+04  0.0000000E+00  0.8201608E-04 -0.1453487E-02  0.5668145E+02  0.1570797E+01  0.3493707E-04  0.1350647E+01
  0.8900000E+00  0.6713734E+03 -0.1570798E+01  0.1430511E-02 -0.3141426E+01  0.9664881E+04  0.2466855E-10  0.1068148E-03  0.7812341E-02  0.5741479E+02  0.1570796E+01  0.5284415E-04  0.1534695E+01
  0.9000000E+00  0.6797154E+03 -0.1570799E+01  0.1201630E-02  0.1984127E-03  0.9656120E+04  0.0000000E+00  0.9918213E-04  0.0000000E+00  0.5815208E+02  0.1570794E+01  0.3611471E-04  0.2826105E+01
  0.9100000E+00  0.6880877E+03 -0.1570795E+01  0.5760264E-03 -0.3136626E+01  0.9647245E+04 -0.2471364E-10  0.4578196E-04 -0.1562373E-01  0.5889258E+02  0.1570793E+01  0.7482698E-05 -0.1035841E+01
  0.9200000E+00  0.6964889E+03 -0.1570796E+01  0.6675724E-03 -0.1071428E-02  0.9638303E+04  0.0000000E+00  0.1544964E-03 -0.3858006E-02  0.5963625E+02  0.1570800E+01  0.3595321E-04  0.1073037E+01
  0.9299999E+00  0.7049210E+03 -0.1570794E+01  0.3814698E-03  0.6249999E-03  0.9629234E+04 -0.4951974E-10  0.3625550E-04  0.3111996E+01  0.6038338E+02  0.1570804E+01  0.1821992E-04  0.1465919E+01
  0.9399999E+00  0.7133842E+03 -0.1570795E+01  0.9078991E-03 -0.3140017E+01  0.9620082E+04  0.4956685E-10  0.1146642E-04  0.3079174E+01  0.6113428E+02  0.1570804E+01  0.4650140E-04 -0.2133200E+01
  0.9500000E+00  0.7218784E+03 -0.1570796E+01  0.6561279E-03  0.0000000E+00  0.9610845E+04  0.2480724E-10  0.1335995E-04 -0.3569911E-01  0.6188909E+02  0.1570800E+01  0.5008053E-04 -0.2088762E+01
  0.9599999E+00  0.7304040E+03 -0.1570797E+01  0.2048494E-02 -0.1280260E-02  0.9601504E+04  0.1539545E-08  0.1029974E-03 -0.3138120E+01  0.6264660E+02  0.1570796E+01  0.1964314E-04  0.1668050E+01
  0.9700000E+00  0.7389630E+03 -0.1570795E+01  0.7476861E-03  0.3137766E+01  0.9592079E+04 -0.1242789E-09  0.3070843E-03 -0.2717385E-02  0.6340863E+02  0.1570807E+01  0.4303175E-04 -0.1794273E+01
  0.9800000E+00  0.7475532E+03 -0.1570797E+01  0.3101349E-02  0.3141362E+01  0.9582527E+04 -0.7464166E-10  0.8010873E-04 -0.3140105E+01  0.6417387E+02  0.1570797E+01  0.3641351E-04 -0.2669161E+01
  0.9900000E+00  0.7561788E+03 -0.1570796E+01  0.1754994E-03 -0.1630290E-01  0.9572910E+04  0.0000000E+00  0.1526624E-04 -0.3123983E-01  0.6494340E+02  0.1570800E+01  0.2421358E-04 -0.2063071E+01
  0.1000000E+01  0.7648367E+03 -0.1570798E+01  0.8011751E-04 -0.3126713E+01  0.9563191E+04 -0.2493086E-10  0.1339448E-04 -0.8018485E-01  0.6571661E+02  0.1570793E+01  0.3800365E-04  0.1264917E+01
  0.1010000E+01  0.7735300E+03 -0.1570794E+01  0.1380921E-02  0.3140384E+01  0.9553388E+04 -0.4991289E-10  0.1719963E-04 -0.3079174E+01  0.6649399E+02  0.1570798E+01  0.3435565E-04 -0.1794734E+01
  0.1020000E+01  0.7822563E+03 -0.1570796E+01  0.4158045E-03 -0.3440353E-02  0.9543479E+04 -0.7494707E-10  0.1010940E-03  0.3132159E+01  0.6727476E+02  0.1570790E+01  0.3815889E-04  0.2499479E-01
  0.1030000E+01  0.7910182E+03 -0.1570795E+01  0.8468629E-03 -0.3141030E+01  0.9533479E+04  0.1250428E-09  0.5151828E-04  0.3113822E+01  0.6805933E+02  0.1570795E+01  0.3193763E-04 -0.2993222E+00
  0.1040000E+01  0.7998167E+03 -0.1570797E+01  0.2059937E-02 -0.3141477E+01  0.9523388E+04  0.2503506E-10  0.9538896E-04 -0.2124680E-01  0.6884888E+02  0.1570798E+01  0.1689621E-04 -0.9710526E+00
  0.1050000E+01  0.8086526E+03 -0.1570796E+01  0.6877043E-05  0.9827937E+00  0.9513195E+04  0.0000000E+00  0.3032685E-03 -0.7861634E-03  0.6964233E+02  0.1570794E+01  0.3890243E-04  0.1373401E+01
  0.1060000E+01  0.8175257E+03 -0.1570796E+01  0.9765700E-03  0.3906230E-02  0.9502920E+04 -0.7526695E-10  0.2975473E-03 -0.2403842E-02  0.7043965E+02  0.1570800E+01  0.3741140E-04  0.2295322E+01
  0.1070000E+01  0.8264339E+03 -0.1570796E+01  0.2479718E-03 -0.3130055E+01  0.9492539E+04  0.1004657E-09  0.9346016E-04  0.3140317E+01  0.7124155E+02  0.1570801E+01  0.4538494E-04  0.7128997E+00
  0.1080000E+01  0.8353828E+03 -0.1570796E+01  0.5722046E-05  0.1570796E+01  0.9482072E+04  0.0000000E+00  0.1926424E-03  0.3140355E+01  0.7204759E+02  0.1570793E+01  0.3379830E-04 -0.1284745E+01
  0.1090000E+01  0.8443681E+03 -0.1570797E+01  0.2937414E-03  0.3133476E+01  0.9471499E+04  0.0000000E+00  0.9155468E-04  0.6510325E-02  0.7285847E+02  0.1570793E+01  0.2644002E-04  0.3545491E+00
  0.1100000E+01  0.8533929E+03 -0.1570795E+01  0.1800542E-02  0.2383470E-02  0.9460858E+04 -0.3099664E-08  0.1449644E-03 -0.9045806E-02  0.7367295E+02  0.1570800E+01  0.5182465E-04  0.1423044E+01
  0.1110000E+01  0.8624584E+03 -0.1570798E+01  0.9078991E-03 -0.3140017E+01  0.9450113E+04 -0.7568753E-10  0.1010912E-03  0.5896158E-02  0.7449269E+02  0.1570798E+01  0.5776930E-04 -0.2088919E+01
  0.1120000E+01  0.8715645E+03 -0.1570798E+01  0.1106262E-03  0.3141593E+01  0.9439277E+04  0.0000000E+00  0.7629404E-04 -0.1562499E-02  0.7531741E+02  0.1570801E+01  0.3072641E-04  0.1166554E+00
  0.1130000E+01  0.8807107E+03 -0.1570796E+01  0.1270301E-02  0.3378365E-02  0.9428342E+04 -0.1264372E-09  0.5348234E-04 -0.3088072E+01  0.7614587E+02  0.1570796E+01  0.4992920E-04  0.2643770E+01
  0.1140000E+01  0.8898975E+03 -0.1570798E+01  0.3166202E-03  0.1506023E-02  0.9417311E+04  0.2531706E-10  0.1659548E-03  0.3127944E+01  0.7697942E+02  0.1570797E+01  0.2601714E-04  0.2026248E+01
  0.1150000E+01  0.8991293E+03 -0.1570796E+01  0.2841949E-02  0.3141425E+01  0.9406197E+04  0.5069394E-10  0.1068228E-03 -0.1450791E-01  0.7781799E+02  0.1570794E+01  0.4915125E-04 -0.1531981E+01
  0.1160000E+01  0.9084009E+03 -0.1570795E+01  0.4997263E-03  0.1908395E-02  0.9394998E+04 -0.2537718E-10  0.2250687E-03  0.3137885E+01  0.7866076E+02  0.1570791E+01  0.4802581E-04  0.1194289E+00
  0.1170000E+01  0.9177169E+03 -0.1570799E+01  0.6561295E-03 -0.2180229E-02  0.9383694E+04  0.1270388E-09  0.1564026E-03 -0.7621950E-03  0.7950898E+02  0.1570799E+01  0.3849186E-04 -0.5691045E+00
  0.1180000E+01  0.9270759E+03 -0.1570797E+01  0.2517863E-03  0.3130229E+01  0.9372299E+04 -0.5087729E-10  0.3490556E-03  0.3133738E+01  0.8036215E+02  0.1570798E+01  0.2637841E-04 -0.2621325E+01
  0.1190000E+01  0.9364803E+03 -0.1570796E+01  0.1258931E-03 -0.1136315E-01  0.9360817E+04  0.0000000E+00  0.2861095E-03 -0.3134509E+01  0.8122025E+02  0.1570793E+01  0.3949481E-04 -0.2188941E+01
  0.1200000E+01  0.9459288E+03 -0.1570796E+01  0.2136316E-03  0.8928334E-02  0.9349246E+04  0.0000000E+00  0.1182559E-03  0.2016126E-02  0.8208324E+02  0.1570792E+01  0.1388775E-04  0.2539305E+01
  0.1210000E+01  0.9554228E+03 -0.1570795E+01  0.6256133E-03  0.3048771E-02  0.9337581E+04 -0.3268253E-08  0.1529646E-04  0.3071396E+01  0.8295184E+02  0.1570799E+01  0.1916862E-04  0.1471128E+01
  0.1220000E+01  0.9649634E+03 -0.1570796E+01  0.3891064E-03 -0.6127374E-02  0.9325821E+04 -0.5113085E-10  0.2862240E-04 -0.2915840E-01  0.8382563E+02  0.1570799E+01  0.4894728E-04  0.2529270E+01
  0.1230000E+01  0.9745497E+03 -0.1570798E+01  0.4120149E-03 -0.3130019E+01  0.9313970E+04  0.5119591E-10  0.4005716E-04  0.1190420E-01  0.8470490E+02  0.1570790E+01  0.3983803E-04 -0.2305391E+01
  0.1240000E+01  0.9841841E+03 -0.1570794E+01  0.1178742E-02 -0.3140784E+01  0.9302035E+04  0.1025232E-09  0.1640372E-03 -0.3133599E+01  0.8558888E+02  0.1570799E+01  0.2457909E-04 -0.1255181E+01
  0.1250000E+01  0.9938689E+03 -0.1570797E+01  0.1190186E-02 -0.3140391E+01  0.9290011E+04  0.0000000E+00  0.2670288E-03  0.3141593E+01  0.8647878E+02  0.1570795E+01  0.2651489E-04  0.6578886E+00
  0.1260000E+01  0.1003599E+04 -0.1570796E+01  0.1323702E-02  0.3139791E+01  0.9277899E+04  0.2569747E-10  0.2079011E-03 -0.3140446E+01  0.8737413E+02  0.1570795E+01  0.1408890E-04 -0.1989021E+01
  0.1270000E+01  0.1013380E+04 -0.1570797E+01  0.6141663E-03  0.0000000E+00  0.9265695E+04  0.7719396E-10  0.1735756E-03 -0.3132664E+01  0.8827496E+02  0.1570794E+01  0.3324294E-04  0.2607323E+01
  0.1280000E+01  0.1023210E+04 -0.1570798E+01  0.1525998E-03  0.3129093E+01  0.9253394E+04  0.0000000E+00  0.7820166E-04  0.3138544E+01  0.8918169E+02  0.1570796E+01  0.1409899E-04  0.3270981E+00
  0.1290000E+01  0.1033091E+04 -0.1570795E+01  0.8392346E-03  0.3139888E+01  0.9241010E+04 -0.2580006E-10  0.8583474E-04  0.3131871E+01  0.9009412E+02  0.1570800E+01  0.9491934E-05  0.1773118E+01
  0.1300000E+01  0.1043023E+04 -0.1570795E+01  0.4081863E-03 -0.8177388E-02  0.9228536E+04 -0.5166986E-10  0.3204360E-03  0.3138617E+01  0.9101266E+02  0.1570794E+01  0.5053181E-04  0.7152792E+00
  0.1310000E+01  0.1053007E+04 -0.1570796E+01  0.9880066E-03  0.0000000E+00  0.9215962E+04 -0.3311383E-08  0.3223427E-03  0.2218931E-02  0.9193678E+02  0.1570795E+01  0.4071028E-04 -0.1664638E+01
  0.1320000E+01  0.1063043E+04 -0.1570794E+01  0.2262116E-02 -0.6323776E-03  0.9203321E+04 -0.2590571E-10  0.4959164E-04 -0.4807655E-02  0.9286671E+02  0.1570791E+01  0.5162684E-04  0.2748223E+01
  0.1330000E+01  0.1073131E+04 -0.1570798E+01  0.1338967E-02  0.3561239E-02  0.9190576E+04  0.7782491E-10  0.2822876E-03 -0.3141170E+01  0.9380293E+02  0.1570803E+01  0.1557039E-04  0.2003985E+00
  0.1340000E+01  0.1083274E+04 -0.1570797E+01  0.5493183E-03  0.3138988E+01  0.9177752E+04  0.2597788E-10  0.1182578E-03 -0.6048313E-02  0.9474541E+02  0.1570798E+01  0.3547874E-04  0.2203545E+01
  0.1350000E+01  0.1093473E+04 -0.1570795E+01  0.1041415E-02  0.2289373E-02  0.9164831E+04 -0.5202902E-10  0.9536743E-04  0.0000000E+00  0.9569368E+02  0.1570797E+01  0.3259279E-04 -0.2782822E+01
  0.1360000E+01  0.1103723E+04 -0.1570798E+01  0.3624342E-03  0.3127120E+01  0.9151823E+04 -0.1563089E-09  0.2365120E-03 -0.3139072E+01  0.9664810E+02  0.1570796E+01  0.3157584E-04 -0.2473927E+01
  0.1370000E+01  0.1114030E+04 -0.1570798E+01  0.1586919E-02  0.2403842E-02  0.9138744E+04  0.7826630E-10  0.3013664E-03  0.3135659E+01  0.9760915E+02  0.1570797E+01  0.7318013E-04 -0.1649068E+01
  0.1380000E+01  0.1124394E+04 -0.1570796E+01  0.4883001E-03  0.8788836E-02  0.9125545E+04 -0.7837951E-10  0.6295379E-04  0.3122656E+01  0.9857671E+02  0.1570795E+01  0.8332653E-04 -0.1778293E+01
  0.1390000E+01  0.1134814E+04 -0.1570798E+01  0.5111917E-03  0.3132265E+01  0.9112296E+04 -0.2616449E-10  0.1106262E-03  0.3141593E+01  0.9955049E+02  0.1570799E+01  0.6488535E-04 -0.3108516E+01
  0.1400000E+01  0.1145291E+04 -0.1570796E+01  0.4806519E-03  0.0000000E+00  0.9098944E+04  0.5240577E-10  0.9155770E-04 -0.1041629E-01  0.1005310E+03  0.1570796E+01  0.4505102E-04 -0.2315019E+01
  0.1410000E+01  0.1155828E+04 -0.1570798E+01  0.5035583E-03  0.3133070E+01  0.9085494E+04  0.0000000E+00  0.5245209E-03  0.2272727E-03  0.1015179E+03  0.1570798E+01  0.8854418E-04 -0.1350426E+00
  0.1420000E+01  0.1166422E+04 -0.1570795E+01  0.1197816E-02 -0.3140399E+01  0.9071966E+04  0.5256161E-10  0.1621299E-03 -0.8088059E-02  0.1025119E+03  0.1570799E+01  0.3754922E-04  0.1261093E+01
  0.1430000E+01  0.1177075E+04 -0.1570796E+01  0.1449586E-02  0.1315789E-02  0.9058372E+04  0.5264049E-10  0.1728535E-04  0.3024081E+01  0.1035121E+03  0.1570792E+01  0.4792213E-04  0.1570796E+01
  0.1440000E+01  0.1187788E+04 -0.1570796E+01  0.1499187E-02 -0.3137776E+01  0.9044664E+04  0.5272027E-10  0.7247964E-04  0.3138303E+01  0.1045200E+03  0.1570798E+01  0.8686293E-04 -0.1725115E+01
  0.1450000E+01  0.1198560E+04 -0.1570797E+01  0.1289368E-02 -0.7396449E-03  0.9030895E+04  0.3273641E-08  0.8010900E-04  0.3138617E+01  0.1055334E+03  0.1570795E+01  0.3476091E-04  0.2025242E+01
  0.1460000E+01  0.1209395E+04 -0.1570795E+01  0.1224567E-02 -0.3132637E+01  0.9017024E+04  0.0000000E+00  0.3204351E-03 -0.1860117E-02  0.1065544E+03  0.1570794E+01  0.3960405E-04  0.1764650E+01
  0.1470000E+01  0.1220293E+04 -0.1570796E+01  0.2136571E-03  0.3123737E+01  0.9003074E+04  0.2648191E-09  0.1964640E-03 -0.3133098E+01  0.1075832E+03  0.1570794E+01  0.6525705E-04  0.2024640E+01
  0.1480000E+01  0.1231250E+04 -0.1570797E+01  0.5760637E-03  0.1241658E-01  0.8989039E+04  0.1060930E-09  0.1659395E-03  0.3140156E+01  0.1086184E+03  0.1570793E+01  0.5745888E-04 -0.2092001E+01
  0.1490000E+01  0.1242272E+04 -0.1570797E+01  0.4921292E-03  0.3129965E+01  0.8974923E+04  0.1062599E-09  0.1544982E-03  0.3135420E+01  0.1096611E+03  0.1570796E+01  0.2413098E-04  0.2624897E+01
  0.1500000E+01  0.1253358E+04 -0.1570796E+01  0.1968384E-02 -0.4844961E-03  0.8960729E+04  0.1596423E-09  0.1792922E-03 -0.3137603E+01  0.1107104E+03  0.1570794E+01  0.5975704E-04  0.1763497E+01
  0.1510000E+01  0.1264507E+04 -0.1570795E+01  0.5607948E-03 -0.1105397E-01  0.8946436E+04  0.0000000E+00  0.2613121E-03  0.3135206E+01  0.1117677E+03  0.1570800E+01  0.5581287E-04  0.1032575E+01
  0.1520000E+01  0.1275719E+04 -0.1570797E+01  0.4312981E-03 -0.3317367E-01  0.8932078E+04 -0.1601544E-09  0.2102955E-04  0.6807646E-01  0.1128319E+03  0.1570796E+01  0.1263618E-04  0.1570796E+01
  0.1530000E+01  0.1286998E+04 -0.1570795E+01  0.1335144E-02 -0.3141236E+01  0.8917627E+04  0.5347131E-10  0.8964571E-04  0.3138933E+01  0.1139040E+03  0.1570794E+01  0.7674597E-04  0.1496169E+01
  0.1540000E+01  0.1298343E+04 -0.1570799E+01  0.4654722E-03 -0.1844053E-01  0.8903094E+04 -0.5355859E-10  0.1564042E-03 -0.4573139E-02  0.1149842E+03  0.1570798E+01  0.5608515E-04 -0.2028741E+01
  0.1550000E+01  0.1309754E+04 -0.1570798E+01  0.4197251E-04 -0.3118869E+01  0.8888473E+04  0.1609401E-09  0.3261566E-03  0.0000000E+00  0.1160712E+03  0.1570795E+01  0.3593799E-04  0.2695747E+01
  0.1560000E+01  0.1321232E+04 -0.1570796E+01  0.1476288E-02  0.3140947E+01  0.8873779E+04 -0.5373552E-10  0.1087231E-03 -0.3132821E+01  0.1171661E+03  0.1570796E+01  0.2765656E-04  0.2331809E+01
  0.1570000E+01  0.1332775E+04 -0.1570795E+01  0.4593504E-04 -0.3058451E+01  0.8859006E+04 -0.5382513E-10  0.2765657E-03  0.8620687E-03  0.1182685E+03  0.1570796E+01  0.1254363E-04 -0.1723446E+01
  0.1580000E+01  0.1344388E+04 -0.1570796E+01  0.1087189E-02 -0.4385965E-03  0.8844145E+04 -0.3234935E-09  0.5626729E-03 -0.4237263E-02  0.1193789E+03  0.1570794E+01  0.3515765E-04 -0.3968777E+00
  0.1590000E+01  0.1356069E+04 -0.1570796E+01  0.4806528E-03  0.1984124E-02  0.8829210E+04 -0.5400677E-10  0.7057230E-04 -0.3378365E-02  0.1204969E+03  0.1570800E+01  0.4711347E-04  0.1408144E+01
  0.1600000E+01  0.1367819E+04 -0.1570798E+01  0.1052929E-02  0.1177482E-01  0.8814195E+04  0.5409877E-10  0.1983666E-03  0.3136785E+01  0.1216231E+03  0.1570795E+01  0.7523192E-04 -0.1443690E+01
  0.1610000E+01  0.1379638E+04 -0.1570796E+01  0.2708586E-03 -0.1056299E-01  0.8799109E+04 -0.1625746E-09  0.2841954E-03  0.1677851E-02  0.1227566E+03  0.1570795E+01  0.9761196E-04  0.1807481E+01
  0.1620000E+01  0.1391525E+04 -0.1570796E+01  0.8125305E-03  0.0000000E+00  0.8783918E+04 -0.5428525E-10  0.1964605E-03 -0.3135525E+01  0.1238991E+03  0.1570795E+01  0.3941413E-04  0.4040975E+00
  0.1630000E+01  0.1403486E+04 -0.1570796E+01  0.8811983E-03 -0.3138887E+01  0.8768670E+04  0.5437965E-10  0.4072207E-03 -0.2927392E-02  0.1250501E+03  0.1570796E+01  0.3904900E-04  0.1668642E+01
  0.1640000E+01  0.1415516E+04 -0.1570796E+01  0.6218003E-03 -0.3137758E+01  0.8753338E+04 -0.5447489E-10  0.2193580E-04  0.3130723E+01  0.1262079E+03  0.1570797E+01  0.3129102E-04  0.1880499E+01
  0.1650000E+01  0.1427615E+04 -0.1570796E+01  0.1228336E-02  0.3139263E+01  0.8737923E+04  0.0000000E+00  0.1497422E-03 -0.3127262E+01  0.1273745E+03  0.1570798E+01  0.6254797E-04 -0.1061106E+01