VARIABLES="w (rad/s)"
"abs(F   1   1)" "angle(F   1   1)"
"abs(F   1   2)" "angle(F   1   2)"
"abs(F   1   3)" "angle(F   1   3)"
"abs(F   1   4)" "angle(F   1   4)"
"abs(F   1   5)" "angle(F   1   5)"
"abs(F   1   6)" "angle(F   1   6)"
Zone t="FKforce - beta =   0.000",I=   286,F=POINT
  0.1500000E+00  0.2156487E+03 -0.1570800E+01  0.9155274E-03  0.3255208E-03  0.2008819E+05 -0.5934299E-11  0.2426147E-02  0.0000000E+00  0.1812084E+02  0.1570798E+01  0.8552700E-04  0.4689460E+00
  0.1600000E+00  0.2300676E+03 -0.1570793E+01  0.3738403E-03  0.1594388E-03  0.2008515E+05  0.2967598E-11  0.4806519E-03  0.3140973E+01  0.1933384E+02  0.1570794E+01  0.2565438E-04  0.2207792E+01
  0.1700000E+00  0.2444949E+03 -0.1570791E+01  0.6408694E-03  0.3140663E+01  0.2008187E+05  0.0000000E+00  0.4806519E-02  0.3141593E+01  0.2054787E+02  0.1570767E+01  0.1653122E-03 -0.1245339E+00
  0.1800000E+00  0.2589309E+03 -0.1570792E+01  0.1526624E-04  0.3123983E-01  0.2007842E+05 -0.2968592E-11  0.1472473E-02  0.1619171E-03  0.2176295E+02  0.1570796E+01  0.1171470E-04 -0.2153577E+00
  0.1900000E+00  0.2733764E+03 -0.1570806E+01  0.1914978E-02  0.2490040E-03  0.2007475E+05 -0.1187654E-10  0.1960754E-02  0.3141562E+01  0.2297908E+02  0.1570765E+01  0.1526491E-03  0.3113280E+01
  0.2000000E+00  0.2878318E+03 -0.1570791E+01  0.1411438E-02  0.2533784E-03  0.2007088E+05 -0.3801226E-09  0.2777100E-02  0.0000000E+00  0.2419642E+02  0.1570764E+01  0.9684772E-04 -0.2966528E+01
  0.2100000E+00  0.3022975E+03 -0.1570801E+01  0.9841919E-03  0.2422481E-03  0.2006681E+05  0.0000000E+00  0.3128052E-03  0.3810975E-03  0.2541478E+02  0.1570759E+01  0.1947716E-03 -0.3093835E+01
  0.2200000E+00  0.3167740E+03 -0.1570799E+01  0.3814772E-04 -0.6249919E-02  0.2006256E+05  0.5941877E-11  0.3509522E-03 -0.3140913E+01  0.2663462E+02  0.1570779E+01  0.2641166E-03 -0.8269144E-01
  0.2300000E+00  0.3312621E+03 -0.1570796E+01  0.8544922E-03 -0.1395089E-03  0.2005809E+05 -0.1188640E-10  0.3143311E-02 -0.3792476E-04  0.2785593E+02  0.1570797E+01  0.2181914E-03 -0.3058451E+01
  0.2400000E+00  0.3457620E+03 -0.1570793E+01  0.3051781E-04  0.3137686E+01  0.2005345E+05  0.0000000E+00  0.1968384E-02 -0.3141411E+01  0.2907837E+02  0.1570819E+01  0.4469077E-04  0.3512778E+00
  0.2500000E+00  0.3602744E+03 -0.1570797E+01  0.2746582E-03  0.4340278E-03  0.2004858E+05  0.0000000E+00  0.1022339E-02 -0.3141126E+01  0.3030236E+02  0.1570772E+01  0.7303593E-04  0.1235452E+00
  0.2600000E+00  0.3748001E+03 -0.1570804E+01  0.5798341E-03  0.6167762E-03  0.2004353E+05 -0.3865887E-09  0.1144409E-02  0.2083333E-03  0.3152805E+02  0.1570802E+01  0.7485318E-04  0.2732100E+01
  0.2700000E+00  0.3893393E+03 -0.1570801E+01  0.6561290E-03  0.3139776E+01  0.2003830E+05  0.0000000E+00  0.1953125E-02 -0.3141410E+01  0.3275529E+02  0.1570809E+01  0.6591401E-04 -0.1022933E+01
  0.2800000E+00  0.4038928E+03 -0.1570807E+01  0.2746613E-03 -0.3136818E+01  0.2003286E+05  0.5950687E-11  0.5187988E-03  0.3141363E+01  0.3398409E+02  0.1570784E+01  0.1031440E-03 -0.2863531E+01
  0.2900000E+00  0.4184608E+03 -0.1570788E+01  0.1068148E-03  0.7812341E-02  0.2002721E+05  0.1190473E-10  0.2075195E-02  0.3141363E+01  0.3521465E+02  0.1570799E+01  0.7267906E-04  0.5738998E+00
  0.3000000E+00  0.4330439E+03 -0.1570794E+01  0.4119873E-03  0.2893519E-03  0.2002139E+05 -0.5954097E-11  0.4173279E-02  0.0000000E+00  0.3644688E+02  0.1570783E+01  0.9159093E-04 -0.2850510E+01
  0.3100000E+00  0.4476437E+03 -0.1570795E+01  0.2289315E-04  0.2083032E-01  0.2001534E+05  0.5955897E-11  0.7629851E-04  0.1093706E-01  0.3768106E+02  0.1570785E+01  0.1200610E-03  0.2967956E+01
  0.3200000E+00  0.4622597E+03 -0.1570801E+01  0.3280641E-03 -0.3140866E+01  0.2000910E+05 -0.5957755E-11  0.8163453E-03 -0.3141155E+01  0.3891727E+02  0.1570821E+01  0.1511950E-04  0.2099722E+01
  0.3300000E+00  0.4768909E+03 -0.1570794E+01  0.3051781E-04  0.3906230E-02  0.2000268E+05 -0.5959665E-11  0.2059938E-03 -0.3140435E+01  0.4015525E+02  0.1570784E+01  0.2777142E-04 -0.1292497E+01
  0.3400000E+00  0.4915413E+03 -0.1570804E+01  0.3662119E-03  0.2278642E-02  0.1999606E+05  0.3576984E-10  0.9841919E-03  0.3141351E+01  0.4139549E+02  0.1570806E+01  0.9150089E-04 -0.2485063E+01
  0.3500000E+00  0.5062092E+03 -0.1570793E+01  0.8697511E-03  0.3141044E+01  0.1998921E+05 -0.7573878E-09  0.1289368E-02  0.3141593E+01  0.4263757E+02  0.1570796E+01  0.4737639E-04 -0.4827786E+00
  0.3600000E+00  0.5208961E+03 -0.1570796E+01  0.8621232E-03 -0.1935838E-02  0.1998220E+05 -0.2982887E-10  0.1335144E-02 -0.3141503E+01  0.4388221E+02  0.1570790E+01  0.1616876E-03 -0.3006629E+01
  0.3700000E+00  0.5356021E+03 -0.1570791E+01  0.6103530E-03  0.2148434E-02  0.1997497E+05  0.0000000E+00  0.7011414E-02 -0.3141559E+01  0.4512882E+02  0.1570812E+01  0.4624230E-04  0.2707925E+01
  0.3800000E+00  0.5503279E+03 -0.1570794E+01  0.1388550E-02 -0.3140734E+01  0.1996754E+05  0.1194031E-10  0.2059940E-03 -0.3139857E+01  0.4637782E+02  0.1570791E+01  0.8441095E-04  0.1075381E+00
  0.3900000E+00  0.5650737E+03 -0.1570794E+01  0.1388550E-02  0.3141078E+01  0.1995992E+05  0.7525264E-09  0.1098633E-02 -0.3141484E+01  0.4762930E+02  0.1570798E+01  0.2476003E-03 -0.4987511E+00
  0.4000000E+00  0.5798406E+03 -0.1570795E+01  0.1907422E-03 -0.3132843E+01  0.1995214E+05 -0.1194953E-10  0.2212526E-03  0.1077586E-02  0.4888329E+02  0.1570791E+01  0.2175130E-03 -0.3115283E+01
  0.4100000E+00  0.5946293E+03 -0.1570794E+01  0.1167298E-02 -0.8169933E-03  0.1994412E+05  0.7650771E-09  0.9918241E-04 -0.3139189E+01  0.5013947E+02  0.1570805E+01  0.2944059E-04  0.2706923E+01
  0.4200000E+00  0.6094401E+03 -0.1570793E+01  0.9460450E-03 -0.3141341E+01  0.1993590E+05  0.2391851E-10  0.4257202E-02  0.5600358E-04  0.5139848E+02  0.1570807E+01  0.2407650E-03 -0.2410839E+01
  0.4300000E+00  0.6242739E+03 -0.1570793E+01  0.6179817E-03  0.3140049E+01  0.1992752E+05  0.0000000E+00  0.4119874E-03  0.5787036E-03  0.5265999E+02  0.1570809E+01  0.4019316E-04 -0.2297439E+01
  0.4400000E+00  0.6391311E+03 -0.1570790E+01  0.2441501E-03  0.3132804E+01  0.1991890E+05  0.2393893E-10  0.2983093E-02 -0.3141513E+01  0.5392442E+02  0.1570788E+01  0.1080892E-03  0.1539071E+00
  0.4500000E+00  0.6540113E+03 -0.1570795E+01  0.7858286E-03 -0.3140076E+01  0.1991008E+05  0.0000000E+00  0.6866621E-04  0.3134648E+01  0.5519172E+02  0.1570803E+01  0.3878994E-04 -0.1823274E+00
  0.4600000E+00  0.6689166E+03 -0.1570799E+01  0.2365132E-03 -0.3137560E+01  0.1990112E+05 -0.2396031E-10  0.1754761E-02  0.3141593E+01  0.5646165E+02  0.1570801E+01  0.1041227E-03  0.2508167E+01
  0.4700000E+00  0.6838482E+03 -0.1570798E+01  0.2517710E-03  0.3138752E+01  0.1989191E+05 -0.1198571E-10  0.2334595E-02  0.1021242E-03  0.5773509E+02  0.1570793E+01  0.1335995E-03  0.3569911E-01
  0.4800000E+00  0.6988050E+03 -0.1570799E+01  0.5416871E-03 -0.3141153E+01  0.1988254E+05  0.0000000E+00  0.1297076E-03  0.1102897E-01  0.5901089E+02  0.1570794E+01  0.1324990E-03  0.7249238E+00
  0.4900000E+00  0.7137874E+03 -0.1570798E+01  0.2288838E-03 -0.3137426E+01  0.1987295E+05 -0.2399429E-10  0.3311157E-02  0.3141521E+01  0.6028994E+02  0.1570809E+01  0.5749201E-04 -0.5304625E+00
  0.5000000E+00  0.7287969E+03 -0.1570797E+01  0.1495361E-02  0.3141274E+01  0.1986318E+05  0.0000000E+00  0.2067566E-02 -0.3141477E+01  0.6157245E+02  0.1570800E+01  0.7603273E-04 -0.7188300E+00
  0.5100000E+00  0.7438352E+03 -0.1570794E+01  0.3051766E-03  0.3139249E+01  0.1985322E+05  0.0000000E+00  0.3906250E-02 -0.3141532E+01  0.6285787E+02  0.1570791E+01  0.2131981E-04  0.1936766E+01
  0.5200000E+00  0.7589009E+03 -0.1570797E+01  0.6103516E-03 -0.3141202E+01  0.1984304E+05 -0.1201523E-10  0.1075745E-02 -0.3141149E+01  0.6414674E+02  0.1570792E+01  0.2166364E-04 -0.7892892E+00
  0.5300000E+00  0.7739967E+03 -0.1570797E+01  0.1960754E-02  0.0000000E+00  0.1983266E+05  0.0000000E+00  0.1365662E-02  0.0000000E+00  0.6543877E+02  0.1570790E+01  0.1152023E-03  0.1197976E+01
  0.5400000E+00  0.7891213E+03 -0.1570800E+01  0.9155305E-04 -0.2604161E-02  0.1982211E+05 -0.4811165E-10  0.3570557E-02 -0.3141459E+01  0.6673483E+02  0.1570804E+01  0.3634300E-04  0.3341981E+00
  0.5500000E+00  0.8042767E+03 -0.1570800E+01  0.9155274E-03  0.2604167E-03  0.1981129E+05  0.7702067E-09  0.1426697E-02  0.3141593E+01  0.6803345E+02  0.1570793E+01  0.1388571E-04  0.1292497E+01
  0.5600000E+00  0.8194628E+03 -0.1570799E+01  0.2441417E-03  0.2929679E-02  0.1980039E+05 -0.3612332E-10  0.4165649E-02  0.1717033E-03  0.6933658E+02  0.1570807E+01  0.1953254E-03 -0.5368608E+00
  0.5700000E+00  0.8346793E+03 -0.1570802E+01  0.2136422E-03 -0.1339206E-01  0.1978925E+05  0.0000000E+00  0.4432678E-02  0.0000000E+00  0.7064299E+02  0.1570797E+01  0.9567212E-04 -0.4101273E+00
  0.5800000E+00  0.8499299E+03 -0.1570795E+01  0.7858289E-03 -0.3139772E+01  0.1977788E+05 -0.4821924E-10  0.1625062E-02 -0.8802814E-03  0.7195347E+02  0.1570798E+01  0.5973623E-04 -0.1698864E+01
  0.5900000E+00  0.8652134E+03 -0.1570794E+01  0.3662129E-03 -0.3138337E+01  0.1976636E+05  0.1206184E-10  0.4577637E-03  0.3141593E+01  0.7326730E+02  0.1570783E+01  0.1926754E-03 -0.4713951E+00
  0.6000000E+00  0.8805307E+03 -0.1570799E+01  0.3822141E-04 -0.6241881E-01  0.1975463E+05 -0.2413800E-10  0.5111700E-03 -0.1399253E-02  0.7458598E+02  0.1570799E+01  0.6787030E-04  0.2688942E+01
  0.6100000E+00  0.8958807E+03 -0.1570798E+01  0.1937868E-02  0.3140239E+01  0.1974267E+05 -0.2415261E-10  0.8316041E-03  0.5733944E-03  0.7590749E+02  0.1570794E+01  0.1951768E-03  0.2735337E+01
  0.6200000E+00  0.9112689E+03 -0.1570795E+01  0.1617432E-02  0.4422170E-03  0.1973055E+05 -0.1208372E-10  0.1533509E-02 -0.6218905E-03  0.7723392E+02  0.1570799E+01  0.6628304E-04  0.2933263E+01
  0.6300000E+00  0.9266903E+03 -0.1570794E+01  0.1007080E-02  0.3141593E+01  0.1971820E+05 -0.2418259E-10  0.2052307E-02  0.3141593E+01  0.7856438E+02  0.1570784E+01  0.2054277E-03  0.2878598E+01
  0.6400000E+00  0.9421494E+03 -0.1570794E+01  0.7400537E-03  0.3139015E+01  0.1970572E+05  0.0000000E+00  0.3181458E-02  0.1498801E-03  0.7989891E+02  0.1570796E+01  0.4283866E-03  0.2989345E+01
  0.6500000E+00  0.9576447E+03 -0.1570795E+01  0.1983648E-03 -0.2403842E-02  0.1969300E+05  0.0000000E+00  0.0000000E+00  0.0000000E+00  0.8123795E+02  0.1570793E+01  0.1324441E-03 -0.2039268E+00
  0.6600000E+00  0.9731781E+03 -0.1570796E+01  0.2227784E-02  0.3140843E+01  0.1968009E+05  0.2422942E-10  0.3883362E-02  0.3141470E+01  0.8258107E+02  0.1570797E+01  0.9742426E-04  0.1973117E+01
  0.6700000E+00  0.9887520E+03 -0.1570795E+01  0.1449587E-03 -0.3139948E+01  0.1966699E+05  0.1212278E-10  0.1007080E-02  0.0000000E+00  0.8392901E+02  0.1570790E+01  0.2854954E-03  0.2991546E+01
  0.6799999E+00  0.1004364E+04 -0.1570794E+01  0.1609803E-02  0.7405212E-03  0.1965369E+05  0.1213098E-10  0.4302979E-02 -0.3141371E+01  0.8528156E+02  0.1570793E+01  0.4286233E-04 -0.2134113E+01
  0.6899999E+00  0.1020017E+04 -0.1570797E+01  0.2670417E-03  0.3131772E+01  0.1964019E+05 -0.1213932E-10  0.2410889E-02  0.3140900E+01  0.8663885E+02  0.1570791E+01  0.2171082E-04 -0.2643561E+01
  0.7000000E+00  0.1035709E+04 -0.1570799E+01  0.6332404E-03  0.1506023E-02  0.1962654E+05  0.0000000E+00  0.4112244E-02 -0.5797774E-04  0.8800040E+02  0.1570807E+01  0.1947184E-03 -0.4164258E-01
  0.7099999E+00  0.1051444E+04 -0.1570795E+01  0.6637580E-03  0.1436781E-02  0.1961261E+05  0.1519549E-08  0.6866497E-04  0.3472208E-02  0.8936707E+02  0.1570799E+01  0.1201140E-03 -0.2833024E+01
  0.7200000E+00  0.1067222E+04 -0.1570798E+01  0.9307862E-03 -0.3141336E+01  0.1959855E+05  0.1581465E-08  0.1419068E-02 -0.3141089E+01  0.9073890E+02  0.1570788E+01  0.9086501E-04 -0.2567417E+01
  0.7300000E+00  0.1083044E+04 -0.1570800E+01  0.2288879E-03 -0.3134301E+01  0.1958429E+05 -0.6086984E-10  0.4425059E-03 -0.3139437E+01  0.9211562E+02  0.1570788E+01  0.9437168E-04  0.1530363E+01
  0.7400000E+00  0.1098909E+04 -0.1570796E+01  0.8468633E-03  0.1126126E-02  0.1956984E+05  0.2436592E-10  0.2441425E-03  0.3906230E-02  0.9349725E+02  0.1570795E+01  0.4195913E-04  0.2147767E+01
  0.7500000E+00  0.1114819E+04 -0.1570798E+01  0.2823363E-03  0.1857894E-01  0.1955518E+05  0.2438419E-10  0.1899719E-02  0.3141467E+01  0.9488454E+02  0.1570794E+01  0.8502631E-04  0.2249917E+01
  0.7600000E+00  0.1130775E+04 -0.1570797E+01  0.8850130E-03  0.3138899E+01  0.1954035E+05  0.0000000E+00  0.2517700E-02 -0.2840909E-03  0.9627633E+02  0.1570799E+01  0.1238492E-03 -0.1158827E+01
  0.7700000E+00  0.1146777E+04 -0.1570797E+01  0.9078979E-03  0.3141593E+01  0.1952530E+05 -0.2442151E-10  0.2388000E-02 -0.3141293E+01  0.9767442E+02  0.1570800E+01  0.8884932E-04 -0.6875231E+00
  0.7800000E+00  0.1162827E+04 -0.1570793E+01  0.1998902E-02 -0.9541982E-03  0.1951005E+05 -0.1515317E-08  0.3601074E-02 -0.3141195E+01  0.9907774E+02  0.1570794E+01  0.4198605E-04  0.3407771E-01
  0.7900000E+00  0.1178924E+04 -0.1570798E+01  0.2075196E-02 -0.3140903E+01  0.1949464E+05  0.1492055E-08  0.5111700E-03 -0.3140193E+01  0.1004866E+03  0.1570791E+01  0.1902516E-03 -0.1158171E+01
  0.8000000E+00  0.1195070E+04 -0.1570795E+01  0.5722435E-03  0.1166614E-01  0.1947898E+05  0.7343871E-10  0.6408693E-03  0.3140849E+01  0.1019012E+03  0.1570797E+01  0.1964853E-03  0.2828284E+01
  0.8099999E+00  0.1211267E+04 -0.1570798E+01  0.9165326E-04  0.4684071E-01  0.1946319E+05  0.0000000E+00  0.2548219E-02  0.9356285E-03  0.1033215E+03  0.1570799E+01  0.6573136E-04  0.1639561E+00
  0.8200001E+00  0.1227516E+04 -0.1570796E+01  0.1335145E-02 -0.3140521E+01  0.1944720E+05  0.2451958E-10  0.2563477E-02 -0.1860119E-03  0.1047479E+03  0.1570789E+01  0.2263646E-03  0.2859821E+01
  0.8299999E+00  0.1243814E+04 -0.1570797E+01  0.1632690E-02  0.0000000E+00  0.1943098E+05  0.0000000E+00  0.1892090E-02  0.3141341E+01  0.1061798E+03  0.1570808E+01  0.2460222E-03  0.2810955E+01
  0.8400000E+00  0.1260165E+04 -0.1570797E+01  0.8621217E-03  0.3141040E+01  0.1941458E+05  0.2456078E-10  0.3738416E-03  0.3139042E+01  0.1076180E+03  0.1570801E+01  0.5766576E-04 -0.1243550E+00
  0.8500000E+00  0.1276568E+04 -0.1570796E+01  0.2823456E-03  0.2026749E-01  0.1939800E+05  0.7374529E-10  0.1892090E-02 -0.3141089E+01  0.1090622E+03  0.1570789E+01  0.9248705E-04 -0.1422616E+00
  0.8600000E+00  0.1293027E+04 -0.1570798E+01  0.1083374E-02  0.8802814E-03  0.1938125E+05  0.0000000E+00  0.6179856E-03  0.3137735E+01  0.1105130E+03  0.1570797E+01  0.6942567E-04 -0.2993382E+01
  0.8700000E+00  0.1309542E+04 -0.1570797E+01  0.1487733E-02 -0.3140311E+01  0.1936430E+05 -0.4924910E-10  0.5210877E-02  0.6405563E-03  0.1119697E+03  0.1570791E+01  0.1960050E-03 -0.3019652E+01
  0.8800000E+00  0.1326112E+04 -0.1570797E+01  0.1274109E-02 -0.7485028E-03  0.1934712E+05  0.0000000E+00  0.2281189E-02 -0.2090301E-03  0.1134335E+03  0.1570800E+01  0.3825411E-03 -0.3066733E+01
  0.8900000E+00  0.1342738E+04 -0.1570798E+01  0.2670292E-03  0.1785712E-02  0.1932976E+05  0.2466855E-10  0.1037598E-02 -0.3141133E+01  0.1149030E+03  0.1570792E+01  0.1706399E-03 -0.1526071E+01
  0.9000000E+00  0.1359422E+04 -0.1570800E+01  0.1121524E-02 -0.3139467E+01  0.1931224E+05  0.0000000E+00  0.3997803E-02  0.3141593E+01  0.1163798E+03  0.1570792E+01  0.4243593E-03  0.7552007E+00
  0.9100000E+00  0.1376166E+04 -0.1570796E+01  0.1586924E-02 -0.3137987E+01  0.1929449E+05 -0.2471364E-10  0.2746582E-02 -0.3141245E+01  0.1178636E+03  0.1570799E+01  0.2050222E-03 -0.1000856E+01
  0.9200000E+00  0.1392968E+04 -0.1570798E+01  0.1091004E-02 -0.4370629E-03  0.1927661E+05  0.0000000E+00  0.2571106E-02 -0.1854599E-03  0.1193534E+03  0.1570799E+01  0.7518053E-04  0.8504747E+00
  0.9299999E+00  0.1409832E+04 -0.1570796E+01  0.5722048E-03  0.3140759E+01  0.1925847E+05 -0.4951974E-10  0.4539490E-02  0.3141488E+01  0.1208508E+03  0.1570804E+01  0.9450072E-04  0.9701982E+00
  0.9399999E+00  0.1426757E+04 -0.1570798E+01  0.1625062E-02 -0.3140712E+01  0.1924016E+05  0.4956685E-10  0.4425059E-03 -0.2155169E-02  0.1223554E+03  0.1570794E+01  0.9447755E-04  0.4771908E+00
  0.9500000E+00  0.1443747E+04 -0.1570797E+01  0.7934606E-03  0.3138588E+01  0.1922169E+05  0.2480724E-10  0.2876282E-02  0.3140929E+01  0.1238674E+03  0.1570796E+01  0.1354639E-03 -0.2006892E+01
  0.9599999E+00  0.1460797E+04 -0.1570798E+01  0.2365189E-03 -0.3133528E+01  0.1920301E+05  0.1539545E-08  0.1388552E-02  0.3139876E+01  0.1253862E+03  0.1570798E+01  0.3561824E-03  0.2540408E+01
  0.9700000E+00  0.1477913E+04 -0.1570796E+01  0.3280640E-03  0.3141593E+01  0.1918416E+05 -0.1242789E-09  0.3181458E-02 -0.4496403E-03  0.1269125E+03  0.1570801E+01  0.2287309E-03 -0.9879975E+00
  0.9800000E+00  0.1495094E+04 -0.1570799E+01  0.4578630E-04 -0.3120762E+01  0.1916505E+05 -0.7464166E-10  0.2120972E-02 -0.2248201E-03  0.1284465E+03  0.1570788E+01  0.1251059E-03 -0.2725690E+01
  0.9900000E+00  0.1512345E+04 -0.1570795E+01  0.3738479E-03  0.3135215E+01  0.1914582E+05  0.0000000E+00  0.4272503E-03  0.3137128E+01  0.1299887E+03  0.1570798E+01  0.3703401E-04  0.2539305E+01
  0.1000000E+01  0.1529659E+04 -0.1570796E+01  0.3814805E-03 -0.7499859E-02  0.1912638E+05 -0.2493086E-10  0.2494812E-02 -0.1911315E-03  0.1315388E+03  0.1570793E+01  0.1234762E-03 -0.2849766E+01
  0.1010000E+01  0.1547043E+04 -0.1570796E+01  0.6561307E-03 -0.3138686E+01  0.1910678E+05 -0.4991289E-10  0.9078991E-03  0.1575629E-02  0.1330968E+03  0.1570797E+01  0.2521104E-03 -0.2279217E+01
  0.1020000E+01  0.1564498E+04 -0.1570798E+01  0.4589790E-04 -0.7278785E-01  0.1908696E+05 -0.7494707E-10  0.1380920E-02  0.3141593E+01  0.1346620E+03  0.1570802E+01  0.1718826E-03  0.2713932E+01
  0.1030000E+01  0.1582023E+04 -0.1570797E+01  0.4119898E-03  0.3138120E+01  0.1906696E+05  0.1250428E-09  0.1182556E-02  0.3141593E+01  0.1362344E+03  0.1570793E+01  0.1809911E-03  0.2150761E+01
  0.1040000E+01  0.1599620E+04 -0.1570796E+01  0.1693727E-02 -0.1126126E-02  0.1904678E+05  0.2503506E-10  0.3524780E-02 -0.3141457E+01  0.1378173E+03  0.1570796E+01  0.5558835E-04 -0.1220560E+01
  0.1050000E+01  0.1617289E+04 -0.1570796E+01  0.6332442E-03  0.3137828E+01  0.1902639E+05  0.0000000E+00  0.2517718E-03 -0.3137805E+01  0.1394076E+03  0.1570791E+01  0.4597709E-04 -0.3048116E+01
  0.1060000E+01  0.1635033E+04 -0.1570798E+01  0.7095377E-03  0.3138232E+01  0.1900584E+05 -0.7526695E-10  0.1739502E-02  0.3141044E+01  0.1410061E+03  0.1570797E+01  0.1413016E-03 -0.3094331E+01
  0.1070000E+01  0.1652853E+04 -0.1570796E+01  0.1374689E-03  0.3096484E+01  0.1898508E+05  0.1004657E-09  0.2815247E-02  0.3141423E+01  0.1426139E+03  0.1570795E+01  0.7359105E-04  0.1674656E+01
  0.1080000E+01  0.1670744E+04 -0.1570799E+01  0.1297076E-03  0.1102897E-01  0.1896414E+05  0.0000000E+00  0.2159119E-02 -0.4416961E-03  0.1442295E+03  0.1570798E+01  0.3370399E-04 -0.4383366E+00
  0.1090000E+01  0.1688719E+04 -0.1570796E+01  0.4272528E-03  0.5580299E-02  0.1894300E+05  0.0000000E+00  0.1098633E-02  0.3141159E+01  0.1458560E+03  0.1570800E+01  0.4792688E-04 -0.2261076E+01
  0.1100000E+01  0.1706769E+04 -0.1570797E+01  0.3051791E-03  0.4687466E-02  0.1892172E+05 -0.3099664E-08  0.3967288E-03  0.3140391E+01  0.1474889E+03  0.1570796E+01  0.1044970E-03 -0.3203076E+00
  0.1110000E+01  0.1724899E+04 -0.1570797E+01  0.8850283E-03  0.6465427E-02  0.1890023E+05 -0.7568753E-10  0.4043604E-03 -0.3537721E-02  0.1491325E+03  0.1570793E+01  0.8862279E-04  0.1353878E+01
  0.1120000E+01  0.1743107E+04 -0.1570793E+01  0.1373291E-02  0.3472222E-03  0.1887855E+05  0.0000000E+00  0.3601074E-02  0.3141195E+01  0.1507857E+03  0.1570793E+01  0.4968783E-04 -0.6241881E-01
  0.1130000E+01  0.1761402E+04 -0.1570797E+01  0.1892096E-02 -0.2520156E-02  0.1885668E+05 -0.1264372E-09  0.7629395E-03  0.0000000E+00  0.1524474E+03  0.1570800E+01  0.5848015E-04 -0.2582993E+01
  0.1140000E+01  0.1779775E+04 -0.1570796E+01  0.4882850E-03 -0.3137686E+01  0.1883462E+05  0.2531706E-10  0.1640320E-02  0.3140721E+01  0.1541191E+03  0.1570794E+01  0.5748262E-04 -0.3046051E+01
  0.1150000E+01  0.1798238E+04 -0.1570797E+01  0.2290804E-04 -0.3099950E+01  0.1881239E+05  0.5069394E-10  0.1892090E-02  0.7560482E-03  0.1558004E+03  0.1570796E+01  0.4188642E-04 -0.1294060E+01
  0.1160000E+01  0.1816778E+04 -0.1570797E+01  0.8394501E-04 -0.3118869E+01  0.1879000E+05 -0.2537718E-10  0.2517700E-02 -0.1893939E-03  0.1574907E+03  0.1570793E+01  0.7261128E-04  0.4665844E+00
  0.1170000E+01  0.1835410E+04 -0.1570797E+01  0.1528856E-04 -0.6241881E-01  0.1876739E+05  0.1270388E-09  0.1327519E-02  0.3139078E+01  0.1591920E+03  0.1570798E+01  0.7975912E-04  0.1474994E+01
  0.1180000E+01  0.1854126E+04 -0.1570794E+01  0.1495361E-02  0.3141593E+01  0.1874460E+05 -0.5087729E-10  0.9079041E-03  0.3137916E+01  0.1609029E+03  0.1570793E+01  0.1534682E-03 -0.2479930E+00
  0.1190000E+01  0.1872936E+04 -0.1570797E+01  0.1075745E-02  0.3141149E+01  0.1872163E+05  0.0000000E+00  0.2761841E-02 -0.1726519E-03  0.1626243E+03  0.1570795E+01  0.4994798E-04 -0.1196185E+00
  0.1200000E+01  0.1891829E+04 -0.1570796E+01  0.1426699E-02  0.1671121E-02  0.1869849E+05  0.0000000E+00  0.1480103E-02  0.3140948E+01  0.1643551E+03  0.1570790E+01  0.1035297E-03 -0.1015018E+00
  0.1210000E+01  0.1910817E+04 -0.1570796E+01  0.1205454E-02  0.3955676E-02  0.1867516E+05 -0.3268253E-08  0.2868652E-02  0.1662234E-03  0.1660975E+03  0.1570795E+01  0.2989401E-03 -0.2735758E+01
  0.1220000E+01  0.1929898E+04 -0.1570796E+01  0.5035673E-03  0.1041629E-01  0.1865164E+05 -0.5113085E-10  0.3303528E-02  0.3141448E+01  0.1678498E+03  0.1570796E+01  0.1465080E-03  0.4243379E+00
  0.1230000E+01  0.1949072E+04 -0.1570797E+01  0.1571656E-02 -0.3140986E+01  0.1862794E+05  0.5119591E-10  0.1304628E-02  0.3140131E+01  0.1696136E+03  0.1570799E+01  0.1559398E-03  0.2469956E+01
  0.1240000E+01  0.1968340E+04 -0.1570796E+01  0.7993247E-05  0.3028849E+00  0.1860407E+05  0.1025232E-09  0.1296998E-02 -0.1102941E-02  0.1713876E+03  0.1570799E+01  0.1843370E-03  0.1550101E+01
  0.1250000E+01  0.1987705E+04 -0.1570798E+01  0.1144896E-03 -0.3112434E+01  0.1858002E+05  0.0000000E+00  0.2532959E-02  0.3141593E+01  0.1731726E+03  0.1570796E+01  0.3159010E-03  0.1425377E+01
  0.1260000E+01  0.2007165E+04 -0.1570796E+01  0.1832451E-03  0.3904265E-01  0.1855580E+05  0.2569747E-10  0.4051208E-02 -0.2354049E-03  0.1749690E+03  0.1570796E+01  0.1105710E-03  0.4578618E+00
  0.1270000E+01  0.2026728E+04 -0.1570796E+01  0.2288821E-02 -0.1458332E-02  0.1853139E+05  0.7719396E-10  0.1670839E-02 -0.3140166E+01  0.1767762E+03  0.1570798E+01  0.1197013E-03  0.7938487E+00
  0.1280000E+01  0.2046385E+04 -0.1570795E+01  0.6106495E-04 -0.3110353E+01  0.1850679E+05  0.0000000E+00  0.2265930E-02  0.3141172E+01  0.1785960E+03  0.1570796E+01  0.1302649E-03  0.4980321E+00
  0.1290000E+01  0.2066148E+04 -0.1570794E+01  0.3357150E-03 -0.3130229E+01  0.1848202E+05 -0.2580006E-10  0.6332399E-03 -0.7530119E-03  0.1804268E+03  0.1570798E+01  0.1052720E-03  0.5854900E+00
  0.1300000E+01  0.2086010E+04 -0.1570796E+01  0.1679794E-03  0.3101841E+01  0.1845707E+05 -0.5166986E-10  0.2258301E-02  0.3141593E+01  0.1822695E+03  0.1570794E+01  0.1490742E-03 -0.2020854E+01
  0.1310000E+01  0.2105979E+04 -0.1570795E+01  0.8393553E-04  0.3124549E+01  0.1843192E+05 -0.3311383E-08  0.1754787E-03 -0.3136158E+01  0.1841242E+03  0.1570794E+01  0.1750713E-03 -0.2726687E+01
  0.1320000E+01  0.2126049E+04 -0.1570796E+01  0.8011006E-03  0.3135640E+01  0.1840664E+05 -0.2590571E-10  0.2899186E-03 -0.3138303E+01  0.1859905E+03  0.1570794E+01  0.1270664E-03  0.3745831E+00
  0.1330000E+01  0.2146225E+04 -0.1570796E+01  0.2105713E-02  0.0000000E+00  0.1838115E+05  0.7782491E-10  0.3753662E-02 -0.1270325E-03  0.1878692E+03  0.1570798E+01  0.7688768E-04  0.1051650E+01
  0.1340000E+01  0.2166508E+04 -0.1570795E+01  0.8544943E-03  0.2232139E-02  0.1835550E+05  0.2597788E-10  0.2456665E-02  0.3141204E+01  0.1897607E+03  0.1570794E+01  0.1544835E-03  0.3529904E+00
  0.1350000E+01  0.2186904E+04 -0.1570797E+01  0.1052860E-02 -0.3138875E+01  0.1832966E+05 -0.5202902E-10  0.5950928E-03  0.3141593E+01  0.1916638E+03  0.1570801E+01  0.1225001E-03  0.3057805E+01
  0.1360000E+01  0.2207405E+04 -0.1570797E+01  0.2288818E-04  0.0000000E+00  0.1830365E+05 -0.1563089E-09  0.3875733E-02 -0.3140977E+01  0.1935797E+03  0.1570799E+01  0.2546721E-03  0.1859384E+01
  0.1370000E+01  0.2228015E+04 -0.1570798E+01  0.5645752E-03  0.3141593E+01  0.1827749E+05  0.7826630E-10  0.4165651E-02  0.8012819E-03  0.1955085E+03  0.1570794E+01  0.4023574E-03  0.1150887E+01
  0.1380000E+01  0.2248745E+04 -0.1570795E+01  0.1701357E-02  0.1681613E-02  0.1825109E+05 -0.7837951E-10  0.2517718E-03  0.3137805E+01  0.1974507E+03  0.1570795E+01  0.4330629E-04  0.2235219E+01
  0.1390000E+01  0.2269581E+04 -0.1570796E+01  0.1251221E-02  0.3140831E+01  0.1822459E+05 -0.2616449E-10  0.5340576E-03  0.0000000E+00  0.1994056E+03  0.1570794E+01  0.1591710E-03 -0.8670441E+00
  0.1400000E+01  0.2290535E+04 -0.1570797E+01  0.1266480E-02  0.3140840E+01  0.1819789E+05  0.5240577E-10  0.2319336E-02  0.0000000E+00  0.2013742E+03  0.1570796E+01  0.1250296E-03 -0.1945637E+01
  0.1410000E+01  0.2311606E+04 -0.1570795E+01  0.5187997E-03 -0.1838233E-02  0.1817099E+05  0.0000000E+00  0.2296448E-02  0.3141385E+01  0.2033548E+03  0.1570797E+01  0.1603563E-03 -0.3099950E+01
  0.1420000E+01  0.2332792E+04 -0.1570796E+01  0.1526356E-03 -0.3116598E+01  0.1814393E+05  0.5256161E-10  0.8163465E-03 -0.3139840E+01  0.2053497E+03  0.1570794E+01  0.1015786E-03  0.1996647E+01
  0.1430000E+01  0.2354095E+04 -0.1570796E+01  0.2517700E-03  0.3141593E+01  0.1811674E+05  0.5264049E-10  0.1045227E-02  0.3141136E+01  0.2073588E+03  0.1570795E+01  0.1484090E-03  0.3888594E+00
  0.1440000E+01  0.2375524E+04 -0.1570795E+01  0.6485098E-03  0.5882285E-02  0.1808933E+05  0.5272027E-10  0.3219605E-02  0.3141296E+01  0.2093818E+03  0.1570795E+01  0.3067587E-03  0.1873867E+01
  0.1450000E+01  0.2397067E+04 -0.1570797E+01  0.1792909E-02 -0.3140529E+01  0.1806179E+05  0.3273641E-08  0.1632691E-02  0.5841121E-03  0.2114170E+03  0.1570794E+01  0.1902981E-03  0.1136288E+01
  0.1460000E+01  0.2418733E+04 -0.1570796E+01  0.7634757E-04  0.3104110E+01  0.1803405E+05  0.0000000E+00  0.6164551E-02  0.2320544E-03  0.2134671E+03  0.1570799E+01  0.3913090E-03  0.1453545E+01
  0.1470000E+01  0.2440528E+04 -0.1570797E+01  0.1373589E-03  0.3120762E+01  0.1800615E+05  0.2648191E-09  0.2250672E-02  0.3141169E+01  0.2155323E+03  0.1570795E+01  0.4278590E-03 -0.1499409E+01
  0.1480000E+01  0.2462441E+04 -0.1570797E+01  0.9918671E-04  0.9615088E-02  0.1797808E+05  0.1060930E-09  0.1640322E-02 -0.3139848E+01  0.2176123E+03  0.1570798E+01  0.5765356E-03  0.1907979E+01
  0.1490000E+01  0.2484486E+04 -0.1570796E+01  0.1598649E-04  0.2838708E+01  0.1794985E+05  0.1062599E-09  0.1594543E-02  0.3141593E+01  0.2197058E+03  0.1570797E+01  0.6052987E-03 -0.1545585E+01
  0.1500000E+01  0.2506652E+04 -0.1570797E+01  0.3509729E-03  0.3130723E+01  0.1792146E+05  0.1596423E-09  0.2182009E-02 -0.3140281E+01  0.2218134E+03  0.1570796E+01  0.1620580E-03  0.2649617E+00
  0.1510000E+01  0.2528949E+04 -0.1570796E+01  0.4043624E-03 -0.4716946E-02  0.1789287E+05  0.0000000E+00  0.6872413E-04  0.3099950E+01  0.2239372E+03  0.1570796E+01  0.1366727E-03  0.1011827E+01
  0.1520000E+01  0.2551373E+04 -0.1570798E+01  0.3510571E-03 -0.2445165E-01  0.1786416E+05 -0.1601544E-09  0.3334046E-02 -0.3141021E+01  0.2260737E+03  0.1570797E+01  0.2974520E-03 -0.2170359E+01
  0.1530000E+01  0.2573927E+04 -0.1570796E+01  0.6104261E-04  0.3125969E+01  0.1783525E+05  0.5347131E-10  0.2571106E-02  0.3709198E-03  0.2282274E+03  0.1570797E+01  0.1450620E-03 -0.2813605E+01
  0.1540000E+01  0.2596617E+04 -0.1570796E+01  0.9078979E-03  0.0000000E+00  0.1780619E+05 -0.5355859E-10  0.4043579E-02  0.2358490E-03  0.2303964E+03  0.1570797E+01  0.3390054E-03  0.1987878E+01
  0.1550000E+01  0.2619433E+04 -0.1570796E+01  0.8544922E-03  0.0000000E+00  0.1777695E+05  0.1609401E-09  0.1602173E-03  0.3141593E+01  0.2325801E+03  0.1570799E+01  0.2451040E-03  0.2283221E+01
  0.1560000E+01  0.2642389E+04 -0.1570797E+01  0.1121525E-02 -0.3139042E+01  0.1774756E+05 -0.5373552E-10  0.1029968E-02  0.0000000E+00  0.2347787E+03  0.1570797E+01  0.2441481E-03 -0.2372767E+01
  0.1570000E+01  0.2665473E+04 -0.1570796E+01  0.1136780E-02  0.3140754E+01  0.1771801E+05 -0.5382513E-10  0.6179817E-03  0.1543209E-02  0.2369936E+03  0.1570797E+01  0.2405307E-03 -0.7531513E+00
  0.1580000E+01  0.2688698E+04 -0.1570796E+01  0.3357056E-03  0.8522521E-02  0.1768829E+05 -0.3234935E-09  0.1167299E-02 -0.3139959E+01  0.2392237E+03  0.1570797E+01  0.5281979E-03  0.1971421E+01
  0.1590000E+01  0.2712057E+04 -0.1570796E+01  0.7864200E-05 -0.2449787E+00  0.1765842E+05 -0.5400677E-10  0.3623963E-02 -0.3141330E+01  0.2414708E+03  0.1570795E+01  0.5934920E-03 -0.1538653E+01
  0.1600000E+01  0.2735555E+04 -0.1570796E+01  0.6332462E-03  0.3137075E+01  0.1762839E+05  0.5409877E-10  0.7934570E-03  0.3141593E+01  0.2437327E+03  0.1570796E+01  0.3804530E-03  0.6565362E+00
  0.1610000E+01  0.2759189E+04 -0.1570795E+01  0.1831675E-03 -0.2603578E-01  0.1759822E+05 -0.1625746E-09  0.3257752E-02 -0.3141007E+01  0.2460116E+03  0.1570796E+01  0.4909137E-03  0.1500804E+01
  0.1620000E+01  0.2782962E+04 -0.1570796E+01  0.7248151E-03  0.3133698E+01  0.1756784E+05 -0.5428525E-10  0.3227234E-02 -0.3141297E+01  0.2483068E+03  0.1570793E+01  0.4625320E-03 -0.6435011E+00
  0.1630000E+01  0.2806882E+04 -0.1570796E+01  0.3814805E-03  0.7499859E-02  0.1753734E+05  0.5437965E-10  0.1300815E-02  0.3139393E+01  0.2506188E+03  0.1570798E+01  0.1385300E-03 -0.2451262E+01
  0.1640000E+01  0.2830936E+04 -0.1570796E+01  0.1007109E-02  0.7575613E-02  0.1750668E+05 -0.5447489E-10  0.5760201E-03  0.3139937E+01  0.2529466E+03  0.1570796E+01  0.5345736E-03  0.1258919E+01
  0.1650000E+01  0.2855133E+04 -0.1570797E+01  0.6790168E-03  0.3140188E+01  0.1747585E+05  0.0000000E+00  0.5989082E-03 -0.3140000E+01  0.2552903E+03  0.1570797E+01  0.4702013E-03 -0.2932052E+00