 VARIABLES="Time (s)"
"AddedMass    1" "IRF    1"
"AddedMass    2" "IRF    2"
"AddedMass    3" "IRF    3"
"AddedMass    4" "IRF    4"
"AddedMass    5" "IRF    5"
"AddedMass    6" "IRF    6"
Zone t="DoF    1",I=   100,F=POINT
  0.0000000E+00  0.3568827E+03  0.7698547E+02 -0.3950243E-08  0.1467079E-07  0.1689560E-04  0.8635042E-04  0.8702101E-08 -0.5220893E-08 -0.6271210E+02 -0.1050078E+02  0.2863794E-06 -0.4488268E-06
  0.1000000E+00  0.3568827E+03  0.7427131E+02 -0.3950243E-08  0.1401048E-07  0.1689560E-04  0.8399887E-04  0.8702101E-08 -0.5044140E-08 -0.6271210E+02 -0.1012887E+02  0.2863794E-06 -0.4315132E-06
  0.2000000E+00  0.3568827E+03  0.6632932E+02 -0.3950243E-08  0.1208794E-07  0.1689560E-04  0.7708520E-04  0.8702101E-08 -0.4526179E-08 -0.6271210E+02 -0.9040697E+01  0.2863794E-06 -0.3809403E-06
  0.3000000E+00  0.3568827E+03  0.5374556E+02 -0.3950243E-08  0.9073302E-08  0.1689560E-04  0.6602309E-04  0.8702101E-08 -0.3703044E-08 -0.6271210E+02 -0.7316811E+01  0.2863794E-06 -0.3010995E-06
  0.4000000E+00  0.3568827E+03  0.3744721E+02 -0.3950243E-08  0.5233361E-08  0.1689560E-04  0.5147325E-04  0.8702101E-08 -0.2631894E-08 -0.6271210E+02 -0.5084615E+01  0.2863794E-06 -0.1982866E-06
  0.5000000E+00  0.3568827E+03  0.1863196E+02 -0.3950243E-08  0.9080480E-09  0.1689560E-04  0.3430213E-04  0.8702101E-08 -0.1386941E-08 -0.6271210E+02 -0.2508663E+01  0.2863794E-06 -0.8059510E-07
  0.6000000E+00  0.3568827E+03 -0.1322740E+01 -0.3950243E-08 -0.3519563E-08  0.1689560E-04  0.1552754E-04  0.8702101E-08 -0.5412744E-10 -0.6271210E+02  0.2218533E+00  0.2863794E-06  0.4273316E-07
  0.7000000E+00  0.3568827E+03 -0.2096395E+02 -0.3950243E-08 -0.7657050E-08  0.1689560E-04 -0.3744616E-05  0.8702101E-08  0.1274981E-08 -0.6271210E+02  0.2907444E+01  0.2863794E-06  0.1620475E-06
  0.8000000E+00  0.3568827E+03 -0.3887268E+02 -0.3950243E-08 -0.1113730E-07  0.1689560E-04 -0.2238906E-04  0.8702101E-08  0.2509682E-08 -0.6271210E+02  0.5353399E+01  0.2863794E-06  0.2680591E-06
  0.9000000E+00  0.3568827E+03 -0.5377021E+02 -0.3950243E-08 -0.1365087E-07  0.1689560E-04 -0.3933063E-04  0.8702101E-08  0.3566512E-08 -0.6271210E+02  0.7384397E+01  0.2863794E-06  0.3525792E-06
  0.1000000E+01  0.3568827E+03 -0.6461295E+02 -0.3950243E-08 -0.1497333E-07  0.1689560E-04 -0.5361026E-04  0.8702101E-08  0.4375048E-08 -0.6271210E+02  0.8857565E+01  0.2863794E-06  0.4091655E-06
  0.1100000E+01  0.3568827E+03 -0.7066895E+02 -0.3950243E-08 -0.1498504E-07  0.1689560E-04 -0.6444322E-04  0.8702101E-08  0.4882718E-08 -0.6271210E+02  0.9672968E+01  0.2863794E-06  0.4336252E-06
  0.1200000E+01  0.3568827E+03 -0.7156970E+02 -0.3950243E-08 -0.1368173E-07  0.1689560E-04 -0.7126584E-04  0.8702101E-08  0.5058286E-08 -0.6271210E+02  0.9780721E+01  0.2863794E-06  0.4243337E-06
  0.1300000E+01  0.3568827E+03 -0.6733412E+02 -0.3950243E-08 -0.1117487E-07  0.1689560E-04 -0.7376807E-04  0.8702101E-08  0.4893790E-08 -0.6271210E+02  0.9184231E+01  0.2863794E-06  0.3823453E-06
  0.1400000E+01  0.3568827E+03 -0.5836248E+02 -0.3950243E-08 -0.7681816E-08  0.1689560E-04 -0.7190970E-04  0.8702101E-08  0.4404761E-08 -0.6271210E+02  0.7939334E+01  0.2863794E-06  0.3112872E-06
  0.1500000E+01  0.3568827E+03 -0.4540142E+02 -0.3950243E-08 -0.3506629E-08  0.1689560E-04 -0.6591938E-04  0.8702101E-08  0.3628797E-08 -0.6271210E+02  0.6149412E+01  0.2863794E-06  0.2170471E-06
  0.1600000E+01  0.3568827E+03 -0.2948279E+02 -0.3950243E-08  0.9867336E-09  0.1689560E-04 -0.5627663E-04  0.8702101E-08  0.2622590E-08 -0.6271210E+02  0.3956950E+01  0.2863794E-06  0.1072823E-06
  0.1700000E+01  0.3568827E+03 -0.1184153E+02 -0.3950243E-08  0.5406581E-08  0.1689560E-04 -0.4367822E-04  0.8702101E-08  0.1457620E-08 -0.6271210E+02  0.1532164E+01  0.2863794E-06 -0.9210296E-08
  0.1800000E+01  0.3568827E+03  0.6181114E+01 -0.3950243E-08  0.9367999E-08  0.1689560E-04 -0.2899110E-04  0.8702101E-08  0.2149257E-09 -0.6271210E+02 -0.9403328E+00  0.2863794E-06 -0.1232096E-06
  0.1900000E+01  0.3568827E+03  0.2324103E+02 -0.3950243E-08  0.1252683E-07  0.1689560E-04 -0.1319507E-04  0.8702101E-08 -0.1020729E-08 -0.6271210E+02 -0.3275797E+01  0.2863794E-06 -0.2258117E-06
  0.2000000E+01  0.3568827E+03  0.3809361E+02 -0.3950243E-08  0.1460997E-07  0.1689560E-04  0.2681131E-05  0.8702101E-08 -0.2166818E-08 -0.6271210E+02 -0.5303451E+01  0.2863794E-06 -0.3091402E-06
  0.2100000E+01  0.3568827E+03  0.4968669E+02 -0.3950243E-08  0.1543938E-07  0.1689560E-04  0.1762587E-04  0.8702101E-08 -0.3148713E-08 -0.6271210E+02 -0.6879257E+01  0.2863794E-06 -0.3669613E-06
  0.2200000E+01  0.3568827E+03  0.5723736E+02 -0.3950243E-08  0.1494767E-07  0.1689560E-04  0.3070904E-04  0.8702101E-08 -0.3904652E-08 -0.6271210E+02 -0.7896462E+01  0.2863794E-06 -0.3951625E-06
  0.2300000E+01  0.3568827E+03  0.6028675E+02 -0.3950243E-08  0.1318390E-07  0.1689560E-04  0.4114029E-04  0.8702101E-08 -0.4389685E-08 -0.6271210E+02 -0.8293085E+01  0.2863794E-06 -0.3920519E-06
  0.2400000E+01  0.3568827E+03  0.5872874E+02 -0.3950243E-08  0.1030894E-07  0.1689560E-04  0.4831766E-04  0.8702101E-08 -0.4578310E-08 -0.6271210E+02 -0.8055795E+01  0.2863794E-06 -0.3584571E-06
  0.2500000E+01  0.3568827E+03  0.5281083E+02 -0.3950243E-08  0.6581084E-08  0.1689560E-04  0.5186338E-04  0.8702101E-08 -0.4465678E-08 -0.6271210E+02 -0.7219972E+01  0.2863794E-06 -0.2976195E-06
  0.2600000E+01  0.3568827E+03  0.4310759E+02 -0.3950243E-08  0.2332792E-08  0.1689560E-04  0.5164499E-04  0.8702101E-08 -0.4067309E-08 -0.6271210E+02 -0.5865965E+01  0.2863794E-06 -0.2148932E-06
  0.2700000E+01  0.3568827E+03  0.3046940E+02 -0.3950243E-08 -0.2058916E-08  0.1689560E-04  0.4778031E-04  0.8702101E-08 -0.3417399E-08 -0.6271210E+02 -0.4111937E+01  0.2863794E-06 -0.1172787E-06
  0.2800000E+01  0.3568827E+03  0.1595028E+02 -0.3950243E-08 -0.6206241E-08  0.1689560E-04  0.4062626E-04  0.8702101E-08 -0.2565872E-08 -0.6271210E+02 -0.2103863E+01  0.2863794E-06 -0.1282734E-07
  0.2900000E+01  0.3568827E+03  0.7215765E+00 -0.3950243E-08 -0.9745163E-08  0.1689560E-04  0.3075229E-04  0.8702101E-08 -0.1574417E-08 -0.6271210E+02 -0.3590232E-02  0.2863794E-06  0.9002849E-07
  0.3000000E+01  0.3568827E+03 -0.1402172E+02 -0.3950243E-08 -0.1236799E-07  0.1689560E-04  0.1890070E-04  0.8702101E-08 -0.5119168E-09 -0.6271210E+02  0.2024120E+01  0.2863794E-06  0.1831637E-06
  0.3100000E+01  0.3568827E+03 -0.2715492E+02 -0.3950243E-08 -0.1385080E-07  0.1689560E-04  0.5935682E-05  0.8702101E-08  0.5505276E-09 -0.6271210E+02  0.3824545E+01  0.2863794E-06  0.2594153E-06
  0.3200000E+01  0.3568827E+03 -0.3770956E+02 -0.3950243E-08 -0.1407345E-07  0.1689560E-04 -0.7214277E-05  0.8702101E-08  0.1544476E-08 -0.6271210E+02  0.5264832E+01  0.2863794E-06  0.3131426E-06
  0.3300000E+01  0.3568827E+03 -0.4494568E+02 -0.3950243E-08 -0.1303018E-07  0.1689560E-04 -0.1961812E-04  0.8702101E-08  0.2408650E-08 -0.6271210E+02  0.6243925E+01  0.2863794E-06  0.3406554E-06
  0.3400000E+01  0.3568827E+03 -0.4840409E+02 -0.3950243E-08 -0.1083005E-07  0.1689560E-04 -0.3040322E-04  0.8702101E-08  0.3092744E-08 -0.6271210E+02  0.6699712E+01  0.2863794E-06  0.3404716E-06
  0.3500000E+01  0.3568827E+03 -0.4793544E+02 -0.3950243E-08 -0.7687050E-08  0.1689560E-04 -0.3881202E-04  0.8702101E-08  0.3560297E-08 -0.6271210E+02  0.6612962E+01  0.2863794E-06  0.3133895E-06
  0.3600000E+01  0.3568827E+03 -0.4370419E+02 -0.3950243E-08 -0.3900584E-08  0.1689560E-04 -0.4425089E-04  0.8702101E-08  0.3790504E-08 -0.6271210E+02  0.6007763E+01  0.2863794E-06  0.2623694E-06
  0.3700000E+01  0.3568827E+03 -0.3616737E+02 -0.3950243E-08  0.1716945E-09  0.1689560E-04 -0.4632791E-04  0.8702101E-08  0.3778827E-08 -0.6271210E+02  0.4948531E+01  0.2863794E-06  0.1922406E-06
  0.3800000E+01  0.3568827E+03 -0.2603065E+02 -0.3950243E-08  0.4146369E-08  0.1689560E-04 -0.4487748E-04  0.8702101E-08  0.3536490E-08 -0.6271210E+02  0.3533839E+01  0.2863794E-06  0.1092583E-06
  0.3900000E+01  0.3568827E+03 -0.1418568E+02 -0.3950243E-08  0.7649375E-08  0.1689560E-04 -0.3997011E-04  0.8702101E-08  0.3088933E-08 -0.6271210E+02  0.1887689E+01  0.2863794E-06  0.2055176E-07
  0.4000000E+01  0.3568827E+03 -0.1634077E+01 -0.3950243E-08  0.1035019E-07  0.1689560E-04 -0.3190718E-04  0.8702101E-08  0.2473361E-08 -0.6271210E+02  0.1489716E+00  0.2863794E-06 -0.6648571E-07
  0.4100000E+01  0.3568827E+03  0.1059579E+02 -0.3950243E-08  0.1199258E-07  0.1689560E-04 -0.2120081E-04  0.8702101E-08  0.1735677E-08 -0.6271210E+02 -0.1540073E+01  0.2863794E-06 -0.1448187E-06
  0.4200000E+01  0.3568827E+03  0.2153193E+02 -0.3950243E-08  0.1241849E-07  0.1689560E-04 -0.8540595E-05  0.8702101E-08  0.9269931E-09 -0.6271210E+02 -0.3045338E+01  0.2863794E-06 -0.2083447E-06
  0.4300000E+01  0.3568827E+03  0.3033510E+02 -0.3950243E-08  0.1158332E-07  0.1689560E-04  0.5250660E-05  0.8702101E-08  0.1000302E-09 -0.6271210E+02 -0.4251399E+01  0.2863794E-06 -0.2523779E-06
  0.4400000E+01  0.3568827E+03  0.3636331E+02 -0.3950243E-08  0.9561032E-08  0.1689560E-04  0.1926981E-04  0.8702101E-08 -0.6943768E-09 -0.6271210E+02 -0.5070369E+01  0.2863794E-06 -0.2740038E-06
  0.4500000E+01  0.3568827E+03  0.3921795E+02 -0.3950243E-08  0.6538436E-08  0.1689560E-04  0.3259058E-04  0.8702101E-08 -0.1410377E-08 -0.6271210E+02 -0.5448225E+01  0.2863794E-06 -0.2722744E-06
  0.4600000E+01  0.3568827E+03  0.3876966E+02 -0.3950243E-08  0.2799212E-08  0.1689560E-04  0.4432218E-04  0.8702101E-08 -0.2009678E-08 -0.6271210E+02 -0.5368307E+01  0.2863794E-06 -0.2482325E-06
  0.4700000E+01  0.3568827E+03  0.3516144E+02 -0.3950243E-08 -0.1301114E-08  0.1689560E-04  0.5366557E-04  0.8702101E-08 -0.2463434E-08 -0.6271210E+02 -0.4851645E+01  0.2863794E-06 -0.2047666E-06
  0.4800000E+01  0.3568827E+03  0.2878958E+02 -0.3950243E-08 -0.5366936E-08  0.1689560E-04  0.5996329E-04  0.8702101E-08 -0.2753351E-08 -0.6271210E+02 -0.3954267E+01  0.2863794E-06 -0.1463125E-06
  0.4900000E+01  0.3568827E+03  0.2026459E+02 -0.3950243E-08 -0.8998521E-08  0.1689560E-04  0.6274124E-04  0.8702101E-08 -0.2872073E-08 -0.6271210E+02 -0.2761671E+01  0.2863794E-06 -0.7842878E-07
  0.5000000E+01  0.3568827E+03  0.1035532E+02 -0.3950243E-08 -0.1182879E-07  0.1689560E-04  0.6173812E-04  0.8702101E-08 -0.2822785E-08 -0.6271210E+02 -0.1381059E+01  0.2863794E-06 -0.7287608E-08
  0.5100000E+01  0.3568827E+03 -0.7821401E-01 -0.3950243E-08 -0.1355766E-07  0.1689560E-04  0.5692212E-04  0.8702101E-08 -0.2618218E-08 -0.6271210E+02  0.6802697E-01  0.2863794E-06  0.6087507E-07
  0.5200000E+01  0.3568827E+03 -0.1015793E+02 -0.3950243E-08 -0.1398086E-07  0.1689560E-04  0.4849365E-04  0.8702101E-08 -0.2279147E-08 -0.6271210E+02  0.1463846E+01  0.2863794E-06  0.1203015E-06
  0.5300000E+01  0.3568827E+03 -0.1906025E+02 -0.3950243E-08 -0.1301070E-07  0.1689560E-04  0.3687391E-04  0.8702101E-08 -0.1832510E-08 -0.6271210E+02  0.2692514E+01  0.2863794E-06  0.1661974E-06
  0.5400000E+01  0.3568827E+03 -0.2608277E+02 -0.3950243E-08 -0.1068665E-07  0.1689560E-04  0.2267992E-04  0.8702101E-08 -0.1309358E-08 -0.6271210E+02  0.3657214E+01  0.2863794E-06  0.1951246E-06
  0.5500000E+01  0.3568827E+03 -0.3069885E+02 -0.3950243E-08 -0.7174640E-08  0.1689560E-04  0.6688328E-05  0.8702101E-08 -0.7427390E-09 -0.6271210E+02  0.4285714E+01  0.2863794E-06  0.2052621E-06
  0.5600000E+01  0.3568827E+03 -0.3259655E+02 -0.3950243E-08 -0.2755129E-08  0.1689560E-04 -0.1021029E-04  0.8702101E-08 -0.1657034E-09 -0.6271210E+02  0.4535705E+01  0.2863794E-06  0.1965204E-06
  0.5700000E+01  0.3568827E+03 -0.3169878E+02 -0.3950243E-08  0.2199410E-08  0.1689560E-04 -0.2706382E-04  0.8702101E-08  0.3905132E-09 -0.6271210E+02  0.4397524E+01  0.2863794E-06  0.1705001E-06
  0.5800000E+01  0.3568827E+03 -0.2816357E+02 -0.3950243E-08  0.7255325E-08  0.1689560E-04 -0.4291403E-04  0.8702101E-08  0.8979543E-09 -0.6271210E+02  0.3894106E+01  0.2863794E-06  0.1303020E-06
  0.5900000E+01  0.3568827E+03 -0.2236465E+02 -0.3950243E-08  0.1195525E-07  0.1689560E-04 -0.5685253E-04  0.8702101E-08  0.1333151E-08 -0.6271210E+02  0.3078229E+01  0.2863794E-06  0.8020762E-07
  0.6000000E+01  0.3568827E+03 -0.1485475E+02 -0.3950243E-08  0.1585780E-07  0.1689560E-04 -0.6807306E-04  0.8702101E-08  0.1677866E-08 -0.6271210E+02  0.2027350E+01  0.2863794E-06  0.2526127E-07
  0.6100000E+01  0.3568827E+03 -0.6314760E+01 -0.3950243E-08  0.1857711E-07  0.1689560E-04 -0.7591778E-04  0.8702101E-08  0.1919583E-08 -0.6271210E+02  0.8365011E+00  0.2863794E-06 -0.2920636E-07
  0.6200000E+01  0.3568827E+03  0.2506541E+01 -0.3950243E-08  0.1981831E-07  0.1689560E-04 -0.7991449E-04  0.8702101E-08  0.2051586E-08 -0.6271210E+02 -0.3901082E+00  0.2863794E-06 -0.7807242E-07
  0.6300000E+01  0.3568827E+03  0.1085678E+02 -0.3950243E-08  0.1940560E-07  0.1689560E-04 -0.7980328E-04  0.8702101E-08  0.2072815E-08 -0.6271210E+02 -0.1548020E+01  0.2863794E-06 -0.1168832E-06
  0.6400000E+01  0.3568827E+03  0.1804345E+02 -0.3950243E-08  0.1730081E-07  0.1689560E-04 -0.7555050E-04  0.8702101E-08  0.1987494E-08 -0.6271210E+02 -0.2541341E+01  0.2863794E-06 -0.1422526E-06
  0.6500000E+01  0.3568827E+03  0.2349040E+02 -0.3950243E-08  0.1361041E-07  0.1689560E-04 -0.6735000E-04  0.8702101E-08  0.1804555E-08 -0.6271210E+02 -0.3290545E+01  0.2863794E-06 -0.1521515E-06
  0.6600000E+01  0.3568827E+03  0.2678347E+02 -0.3950243E-08  0.8580115E-08  0.1689560E-04 -0.5561150E-04  0.8702101E-08  0.1537000E-08 -0.6271210E+02 -0.3738780E+01  0.2863794E-06 -0.1460689E-06
  0.6700000E+01  0.3568827E+03  0.2770133E+02 -0.3950243E-08  0.2577474E-08  0.1689560E-04 -0.4093683E-04  0.8702101E-08  0.1201113E-08 -0.6271210E+02 -0.3856081E+01  0.2863794E-06 -0.1250330E-06
  0.6800000E+01  0.3568827E+03  0.2622944E+02 -0.3950243E-08 -0.3936174E-08  0.1689560E-04 -0.2408609E-04  0.8702101E-08  0.8156895E-09 -0.6271210E+02 -0.3641253E+01  0.2863794E-06 -0.9149063E-07
  0.6900000E+01  0.3568827E+03  0.2255616E+02 -0.3950243E-08 -0.1044243E-07  0.1689560E-04 -0.5934626E-05  0.8702101E-08  0.4011705E-09 -0.6271210E+02 -0.3121273E+01  0.2863794E-06 -0.4905559E-07
  0.7000000E+01  0.3568827E+03  0.1705195E+02 -0.3950243E-08 -0.1640819E-07  0.1689560E-04  0.1257496E-04  0.8702101E-08 -0.2118179E-10 -0.6271210E+02 -0.2348322E+01  0.2863794E-06 -0.2155033E-08
  0.7100000E+01  0.3568827E+03  0.1023356E+02 -0.3950243E-08 -0.2132963E-07  0.1689560E-04  0.3048461E-04  0.8702101E-08 -0.4301846E-09 -0.6271210E+02 -0.1394777E+01  0.2863794E-06  0.4439904E-07
  0.7200000E+01  0.3568827E+03  0.2716715E+01 -0.3950243E-08 -0.2477511E-07  0.1689560E-04  0.4687246E-04  0.8702101E-08 -0.8055471E-09 -0.6271210E+02 -0.3465866E+00  0.2863794E-06  0.8586754E-07
  0.7300000E+01  0.3568827E+03 -0.4838406E+01 -0.3950243E-08 -0.2642227E-07  0.1689560E-04  0.6090155E-04  0.8702101E-08 -0.1128799E-08 -0.6271210E+02  0.7043230E+00  0.2863794E-06  0.1180321E-06
  0.7400000E+01  0.3568827E+03 -0.1178444E+02 -0.3950243E-08 -0.2608688E-07  0.1689560E-04  0.7186403E-04  0.8702101E-08 -0.1384067E-08 -0.6271210E+02  0.1668016E+01  0.2863794E-06  0.1375948E-06
  0.7500000E+01  0.3568827E+03 -0.1754162E+02 -0.3950243E-08 -0.2374074E-07  0.1689560E-04  0.7921694E-04  0.8702101E-08 -0.1558885E-08 -0.6271210E+02  0.2464153E+01  0.2863794E-06  0.1424874E-06
  0.7600000E+01  0.3568827E+03 -0.2164549E+02 -0.3950243E-08 -0.1951666E-07  0.1689560E-04  0.8260887E-04  0.8702101E-08 -0.1644877E-08 -0.6271210E+02  0.3028591E+01  0.2863794E-06  0.1320686E-06
  0.7700000E+01  0.3568827E+03 -0.2378399E+02 -0.3950243E-08 -0.1370050E-07  0.1689560E-04  0.8189574E-04  0.8702101E-08 -0.1638268E-08 -0.6271210E+02  0.3318500E+01  0.2863794E-06  0.1071856E-06
  0.7800000E+01  0.3568827E+03 -0.2382050E+02 -0.3950243E-08 -0.6710276E-08  0.1689560E-04  0.7714571E-04  0.8702101E-08 -0.1540305E-08 -0.6271210E+02  0.3315526E+01  0.2863794E-06  0.7010048E-07
  0.7900000E+01  0.3568827E+03 -0.2180169E+02 -0.3950243E-08  0.9356128E-09  0.1689560E-04  0.6863210E-04  0.8702101E-08 -0.1357329E-08 -0.6271210E+02  0.3026825E+01  0.2863794E-06  0.2428414E-07
  0.8000000E+01  0.3568827E+03 -0.1794941E+02 -0.3950243E-08  0.8659088E-08  0.1689560E-04  0.5681623E-04  0.8702101E-08 -0.1100629E-08 -0.6271210E+02  0.2483875E+01  0.2863794E-06 -0.2590320E-07
  0.8100000E+01  0.3568827E+03 -0.1263775E+02 -0.3950243E-08  0.1586801E-07  0.1689560E-04  0.4232012E-04  0.8702101E-08 -0.7859927E-09 -0.6271210E+02  0.1739251E+01  0.2863794E-06 -0.7561322E-07
  0.8200000E+01  0.3568827E+03 -0.6357890E+01 -0.3950243E-08  0.2200346E-07  0.1689560E-04  0.2589213E-04  0.8702101E-08 -0.4329273E-09 -0.6271210E+02  0.8616843E+00  0.2863794E-06 -0.1199570E-06
  0.8300000E+01  0.3568827E+03  0.3269214E+00 -0.3950243E-08  0.2658515E-07  0.1689560E-04  0.8365374E-05  0.8702101E-08 -0.6356979E-10 -0.6271210E+02 -0.7021588E-01  0.2863794E-06 -0.1544637E-06
  0.8400001E+01  0.3568827E+03  0.6830821E+01 -0.3950243E-08  0.2924989E-07  0.1689560E-04 -0.9385310E-05  0.8702101E-08  0.2985929E-09 -0.6271210E+02 -0.9748688E+00  0.2863794E-06 -0.1754972E-06
  0.8500000E+01  0.3568827E+03  0.1259631E+02 -0.3950243E-08  0.2978175E-07  0.1689560E-04 -0.2648919E-04  0.8702101E-08  0.6302813E-09 -0.6271210E+02 -0.1774807E+01  0.2863794E-06 -0.1806071E-06
  0.8600000E+01  0.3568827E+03  0.1714170E+02 -0.3950243E-08  0.2812978E-07  0.1689560E-04 -0.4212397E-04  0.8702101E-08  0.9099412E-09 -0.6271210E+02 -0.2403266E+01  0.2863794E-06 -0.1687694E-06
  0.8700000E+01  0.3568827E+03  0.2010065E+02 -0.3950243E-08  0.2441295E-07  0.1689560E-04 -0.5555506E-04  0.8702101E-08  0.1119368E-08 -0.6271210E+02 -0.2809657E+01  0.2863794E-06 -0.1405031E-06
  0.8800000E+01  0.3568827E+03  0.2125150E+02 -0.3950243E-08  0.1891081E-07  0.1689560E-04 -0.6617141E-04  0.8702101E-08  0.1245077E-08 -0.6271210E+02 -0.2963618E+01  0.2863794E-06 -0.9784655E-07
  0.8900001E+01  0.3568827E+03  0.2053328E+02 -0.3950243E-08  0.1204194E-07  0.1689560E-04 -0.7351193E-04  0.8702101E-08  0.1279435E-08 -0.6271210E+02 -0.2857198E+01  0.2863794E-06 -0.4419870E-07
  0.9000000E+01  0.3568827E+03  0.1804776E+02 -0.3950243E-08  0.4330516E-08  0.1689560E-04 -0.7728521E-04  0.8702101E-08  0.1221417E-08 -0.6271210E+02 -0.2505093E+01  0.2863794E-06  0.1596527E-07
  0.9100000E+01  0.3568827E+03  0.1404727E+02 -0.3950243E-08 -0.3635580E-08  0.1689560E-04 -0.7737904E-04  0.8702101E-08  0.1076894E-08 -0.6271210E+02 -0.1942913E+01  0.2863794E-06  0.7747959E-07
  0.9200000E+01  0.3568827E+03  0.8910117E+01 -0.3950243E-08 -0.1125079E-07  0.1689560E-04 -0.7386109E-04  0.8702101E-08  0.8583387E-09 -0.6271210E+02 -0.1223722E+01  0.2863794E-06  0.1349325E-06
  0.9300000E+01  0.3568827E+03  0.3105088E+01 -0.3950243E-08 -0.1794105E-07  0.1689560E-04 -0.6697003E-04  0.8702101E-08  0.5840707E-09 -0.6271210E+02 -0.4130680E+00  0.2863794E-06  0.1831488E-06
  0.9400001E+01  0.3568827E+03 -0.2850438E+01 -0.3950243E-08 -0.2320804E-07  0.1689560E-04 -0.5709898E-04  0.8702101E-08  0.2769634E-09 -0.6271210E+02  0.4168733E+00  0.2863794E-06  0.2176465E-06
  0.9500000E+01  0.3568827E+03 -0.8436369E+01 -0.3950243E-08 -0.2666888E-07  0.1689560E-04 -0.4477154E-04  0.8702101E-08 -0.3732052E-10 -0.6271210E+02  0.1193686E+01  0.2863794E-06  0.2350432E-06
  0.9600000E+01  0.3568827E+03 -0.1317504E+02 -0.3950243E-08 -0.2808562E-07  0.1689560E-04 -0.3061176E-04  0.8702101E-08 -0.3323345E-09 -0.6271210E+02  0.1850998E+01  0.2863794E-06  0.2333715E-06
  0.9700000E+01  0.3568827E+03 -0.1667136E+02 -0.3950243E-08 -0.2738258E-07  0.1689560E-04 -0.1531145E-04  0.8702101E-08 -0.5830333E-09 -0.6271210E+02  0.2334058E+01  0.2863794E-06  0.2122692E-06
  0.9800000E+01  0.3568827E+03 -0.1864586E+02 -0.3950243E-08 -0.2465099E-07  0.1689560E-04  0.4061014E-06  0.8702101E-08 -0.7679185E-09 -0.6271210E+02  0.2604303E+01  0.2863794E-06  0.1730361E-06
  0.9900001E+01  0.3568827E+03 -0.1895637E+02 -0.3950243E-08 -0.2013969E-07  0.1689560E-04  0.1582086E-04  0.8702101E-08 -0.8709958E-09 -0.6271210E+02  0.2642354E+01  0.2863794E-06  0.1185449E-06
Zone t="DoF    2",I=   100,F=POINT
  0.0000000E+00  0.4948457E-07 -0.1742320E-07  0.3568827E+03  0.7698540E+02 -0.3708678E-06 -0.5756129E-07  0.6271209E+02  0.1050077E+02 -0.1646133E-09  0.1038838E-07  0.1764628E-06  0.6109535E-06
  0.1000000E+00  0.4948457E-07 -0.1669914E-07  0.3568827E+03  0.7427125E+02 -0.3708678E-06 -0.5663949E-07  0.6271209E+02  0.1012886E+02 -0.1646133E-09  0.9944910E-08  0.1764628E-06  0.5884120E-06
  0.2000000E+00  0.4948457E-07 -0.1458618E-07  0.3568827E+03  0.6632926E+02 -0.3708678E-06 -0.5381226E-07  0.6271209E+02  0.9040691E+01 -0.1646133E-09  0.8651930E-08  0.1764628E-06  0.5225068E-06
  0.3000000E+00  0.4948457E-07 -0.1125701E-07  0.3568827E+03  0.5374553E+02 -0.3708678E-06 -0.4891055E-07  0.6271209E+02  0.7316809E+01 -0.1646133E-09  0.6618584E-08  0.1764628E-06  0.4182621E-06
  0.4000000E+00  0.4948457E-07 -0.6983712E-08  0.3568827E+03  0.3744719E+02 -0.3708678E-06 -0.4170607E-07  0.6271209E+02  0.5084612E+01 -0.1646133E-09  0.4016546E-08  0.1764628E-06  0.2836144E-06
  0.5000000E+00  0.4948457E-07 -0.2115463E-08  0.3568827E+03  0.1863195E+02 -0.3708678E-06 -0.3198462E-07  0.6271209E+02  0.2508662E+01 -0.1646133E-09  0.1065579E-08  0.1764628E-06  0.1287938E-06
  0.6000000E+00  0.4948457E-07  0.2950026E-08  0.3568827E+03 -0.1322732E+01 -0.3708678E-06 -0.1963223E-07  0.6271209E+02 -0.2218524E+00 -0.1646133E-09 -0.1984956E-08  0.1764628E-06 -0.3447227E-07
  0.7000000E+00  0.4948457E-07  0.7798931E-08  0.3568827E+03 -0.2096392E+02 -0.3708678E-06 -0.4723314E-08  0.6271209E+02 -0.2907441E+01 -0.1646133E-09 -0.4877069E-08  0.1764628E-06 -0.1938701E-06
  0.8000000E+00  0.4948457E-07  0.1203503E-07  0.3568827E+03 -0.3887265E+02 -0.3708678E-06  0.1240410E-07  0.6271209E+02 -0.5353395E+01 -0.1646133E-09 -0.7365855E-08  0.1764628E-06 -0.3374531E-06
  0.9000000E+00  0.4948457E-07  0.1531182E-07  0.3568827E+03 -0.5377016E+02 -0.3708678E-06  0.3109852E-07  0.6271209E+02 -0.7384391E+01 -0.1646133E-09 -0.9240085E-08  0.1764628E-06 -0.4545620E-06
  0.1000000E+01  0.4948457E-07  0.1736048E-07  0.3568827E+03 -0.6461291E+02 -0.3708678E-06  0.5038127E-07  0.6271209E+02 -0.8857559E+01 -0.1646133E-09 -0.1033999E-07  0.1764628E-06 -0.5366404E-06
  0.1100000E+01  0.4948457E-07  0.1801139E-07  0.3568827E+03 -0.7066889E+02 -0.3708678E-06  0.6897575E-07  0.6271209E+02 -0.9672963E+01 -0.1646133E-09 -0.1057073E-07  0.1764628E-06 -0.5778811E-06
  0.1200000E+01  0.4948457E-07  0.1720743E-07  0.3568827E+03 -0.7156965E+02 -0.3708678E-06  0.8538171E-07  0.6271209E+02 -0.9780714E+01 -0.1646133E-09 -0.9910321E-08  0.1764628E-06 -0.5756535E-06
  0.1300000E+01  0.4948457E-07  0.1500809E-07  0.3568827E+03 -0.6733407E+02 -0.3708678E-06  0.9799086E-07  0.6271209E+02 -0.9184224E+01 -0.1646133E-09 -0.8411625E-08  0.1764628E-06 -0.5306790E-06
  0.1400000E+01  0.4948457E-07  0.1158417E-07  0.3568827E+03 -0.5836246E+02 -0.3708678E-06  0.1052342E-06  0.6271209E+02 -0.7939327E+01 -0.1646133E-09 -0.6197881E-08  0.1764628E-06 -0.4469451E-06
  0.1500000E+01  0.4948457E-07  0.7203425E-08  0.3568827E+03 -0.4540139E+02 -0.3708678E-06  0.1057508E-06  0.6271209E+02 -0.6149408E+01 -0.1646133E-09 -0.3452440E-08  0.1764628E-06 -0.3313610E-06
  0.1600000E+01  0.4948457E-07  0.2208500E-08  0.3568827E+03 -0.2948278E+02 -0.3708678E-06  0.9855709E-07  0.6271209E+02 -0.3956948E+01 -0.1646133E-09 -0.4034372E-09  0.1764628E-06 -0.1931908E-06
  0.1700000E+01  0.4948457E-07 -0.3010690E-08  0.3568827E+03 -0.1184153E+02 -0.3708678E-06  0.8320114E-07  0.6271209E+02 -0.1532165E+01 -0.1646133E-09  0.2695252E-08  0.1764628E-06 -0.4330671E-07
  0.1800000E+01  0.4948457E-07 -0.8048501E-08  0.3568827E+03  0.6181092E+01 -0.3708678E-06  0.5988201E-07  0.6271209E+02  0.9403301E+00 -0.1646133E-09  0.5585262E-08  0.1764628E-06  0.1066772E-06
  0.1900000E+01  0.4948457E-07 -0.1251560E-07  0.3568827E+03  0.2324100E+02 -0.3708678E-06  0.2951815E-07  0.6271209E+02  0.3275792E+01 -0.1646133E-09  0.8025281E-08  0.1764628E-06  0.2453182E-06
  0.2000000E+01  0.4948457E-07 -0.1606949E-07  0.3568827E+03  0.3809356E+02 -0.3708678E-06 -0.6248197E-08  0.6271209E+02  0.5303445E+01 -0.1646133E-09  0.9811184E-08  0.1764628E-06  0.3622357E-06
  0.2100000E+01  0.4948457E-07 -0.1844078E-07  0.3568827E+03  0.4968665E+02 -0.3708678E-06 -0.4511670E-07  0.6271209E+02  0.6879251E+01 -0.1646133E-09  0.1079305E-07  0.1764628E-06  0.4489055E-06
  0.2200000E+01  0.4948457E-07 -0.1945318E-07  0.3568827E+03  0.5723731E+02 -0.3708678E-06 -0.8426520E-07  0.6271209E+02  0.7896456E+01 -0.1646133E-09  0.1088764E-07  0.1764628E-06  0.4992990E-06
  0.2300000E+01  0.4948457E-07 -0.1903584E-07  0.3568827E+03  0.6028672E+02 -0.3708678E-06 -0.1205509E-06  0.6271209E+02  0.8293077E+01 -0.1646133E-09  0.1008526E-07  0.1764628E-06  0.5103170E-06
  0.2400000E+01  0.4948457E-07 -0.1722707E-07  0.3568827E+03  0.5872870E+02 -0.3708678E-06 -0.1507603E-06  0.6271209E+02  0.8055786E+01 -0.1646133E-09  0.8450558E-08  0.1764628E-06  0.4819848E-06
  0.2500000E+01  0.4948457E-07 -0.1416930E-07  0.3568827E+03  0.5281078E+02 -0.3708678E-06 -0.1718896E-06  0.6271209E+02  0.7219967E+01 -0.1646133E-09  0.6117102E-08  0.1764628E-06  0.4173986E-06
  0.2600000E+01  0.4948457E-07 -0.1009607E-07  0.3568827E+03  0.4310757E+02 -0.3708678E-06 -0.1814323E-06  0.6271209E+02  0.5865960E+01 -0.1646133E-09  0.3276195E-08  0.1764628E-06  0.3224273E-06
  0.2700000E+01  0.4948457E-07 -0.5312051E-08  0.3568827E+03  0.3046939E+02 -0.3708678E-06 -0.1776436E-06  0.6271209E+02  0.4111935E+01 -0.1646133E-09  0.1610064E-09  0.1764628E-06  0.2052021E-06
  0.2800000E+01  0.4948457E-07 -0.1681426E-09  0.3568827E+03  0.1595028E+02 -0.3708678E-06 -0.1597598E-06  0.6271209E+02  0.2103863E+01 -0.1646133E-09 -0.2972812E-08  0.1764628E-06  0.7543047E-07
  0.2900000E+01  0.4948457E-07  0.4966322E-08  0.3568827E+03  0.7216001E+00 -0.3708678E-06 -0.1281450E-06  0.6271209E+02  0.3592490E-02 -0.1646133E-09 -0.5868284E-08  0.1764628E-06 -0.5640204E-07
  0.3000000E+01  0.4948457E-07  0.9732080E-08  0.3568827E+03 -0.1402169E+02 -0.3708678E-06 -0.8434898E-07  0.6271209E+02 -0.2024116E+01 -0.1646133E-09 -0.8288302E-08  0.1764628E-06 -0.1798777E-06
  0.3100000E+01  0.4948457E-07  0.1380650E-07  0.3568827E+03 -0.2715487E+02 -0.3708678E-06 -0.3106093E-07  0.6271209E+02 -0.3824540E+01 -0.1646133E-09 -0.1003517E-07  0.1764628E-06 -0.2854766E-06
  0.3200000E+01  0.4948457E-07  0.1692626E-07  0.3568827E+03 -0.3770951E+02 -0.3708678E-06  0.2803735E-07  0.6271209E+02 -0.5264826E+01 -0.1646133E-09 -0.1096672E-07  0.1764628E-06 -0.3653153E-06
  0.3300000E+01  0.4948457E-07  0.1890477E-07  0.3568827E+03 -0.4494562E+02 -0.3708678E-06  0.8852106E-07  0.6271209E+02 -0.6243918E+01 -0.1646133E-09 -0.1100786E-07  0.1764628E-06 -0.4137458E-06
  0.3400000E+01  0.4948457E-07  0.1964272E-07  0.3568827E+03 -0.4840402E+02 -0.3708678E-06  0.1455509E-06  0.6271209E+02 -0.6699706E+01 -0.1646133E-09 -0.1015653E-07  0.1764628E-06 -0.4277605E-06
  0.3500000E+01  0.4948457E-07  0.1913131E-07  0.3568827E+03 -0.4793539E+02 -0.3708678E-06  0.1942601E-06  0.6271209E+02 -0.6612953E+01 -0.1646133E-09 -0.8483550E-08  0.1764628E-06 -0.4071791E-06
  0.3600000E+01  0.4948457E-07  0.1744836E-07  0.3568827E+03 -0.4370416E+02 -0.3708678E-06  0.2301708E-06  0.6271209E+02 -0.6007758E+01 -0.1646133E-09 -0.6126482E-08  0.1764628E-06 -0.3546034E-06
  0.3700000E+01  0.4948457E-07  0.1474813E-07  0.3568827E+03 -0.3616735E+02 -0.3708678E-06  0.2495973E-06  0.6271209E+02 -0.4948527E+01 -0.1646133E-09 -0.3278108E-08  0.1764628E-06 -0.2751485E-06
  0.3800000E+01  0.4948457E-07  0.1124540E-07  0.3568827E+03 -0.2603064E+02 -0.3708678E-06  0.2500111E-06  0.6271209E+02 -0.3533836E+01 -0.1646133E-09 -0.1703140E-09  0.1764628E-06 -0.1759741E-06
  0.3900000E+01  0.4948457E-07  0.7196259E-08  0.3568827E+03 -0.1418569E+02 -0.3708678E-06  0.2303204E-06  0.6271209E+02 -0.1887689E+01 -0.1646133E-09  0.2945031E-08  0.1764628E-06 -0.6566167E-07
  0.4000000E+01  0.4948457E-07  0.2876790E-08  0.3568827E+03 -0.1634092E+01 -0.3708678E-06  0.1910468E-06  0.6271209E+02 -0.1489728E+00 -0.1646133E-09  0.5816778E-08  0.1764628E-06  0.4651388E-07
  0.4100000E+01  0.4948457E-07 -0.1438252E-08  0.3568827E+03  0.1059577E+02 -0.3708678E-06  0.1343708E-06  0.6271209E+02  0.1540070E+01 -0.1646133E-09  0.8214956E-08  0.1764628E-06  0.1513548E-06
  0.4200000E+01  0.4948457E-07 -0.5494924E-08  0.3568827E+03  0.2153188E+02 -0.3708678E-06  0.6403660E-07  0.6271209E+02  0.3045334E+01 -0.1646133E-09  0.9949334E-08  0.1764628E-06  0.2404884E-06
  0.4300000E+01  0.4948457E-07 -0.9076059E-08  0.3568827E+03  0.3033506E+02 -0.3708678E-06 -0.1487864E-07  0.6271209E+02  0.4251394E+01 -0.1646133E-09  0.1088456E-07  0.1764628E-06  0.3070326E-06
  0.4400000E+01  0.4948457E-07 -0.1201339E-07  0.3568827E+03  0.3636325E+02 -0.3708678E-06 -0.9632551E-07  0.6271209E+02  0.5070362E+01 -0.1646133E-09  0.1095071E-07  0.1764628E-06  0.3461278E-06
  0.4500000E+01  0.4948457E-07 -0.1419395E-07  0.3568827E+03  0.3921790E+02 -0.3708678E-06 -0.1737394E-06  0.6271209E+02  0.5448220E+01 -0.1646133E-09  0.1014835E-07  0.1764628E-06  0.3552909E-06
  0.4600000E+01  0.4948457E-07 -0.1556177E-07  0.3568827E+03  0.3876962E+02 -0.3708678E-06 -0.2405661E-06  0.6271209E+02  0.5368300E+01 -0.1646133E-09  0.8547786E-08  0.1764628E-06  0.3345661E-06
  0.4700000E+01  0.4948457E-07 -0.1611438E-07  0.3568827E+03  0.3516140E+02 -0.3708678E-06 -0.2908116E-06  0.6271209E+02  0.4851640E+01 -0.1646133E-09  0.6282627E-08  0.1764628E-06  0.2864659E-06
  0.4800000E+01  0.4948457E-07 -0.1589559E-07  0.3568827E+03  0.2878955E+02 -0.3708678E-06 -0.3195675E-06  0.6271209E+02  0.3954263E+01 -0.1646133E-09  0.3538314E-08  0.1764628E-06  0.2157095E-06
  0.4900000E+01  0.4948457E-07 -0.1498524E-07  0.3568827E+03  0.2026457E+02 -0.3708678E-06 -0.3234722E-06  0.6271209E+02  0.2761667E+01 -0.1646133E-09  0.5364557E-09  0.1764628E-06  0.1287830E-06
  0.5000000E+01  0.4948457E-07 -0.1348733E-07  0.3568827E+03  0.1035532E+02 -0.3708678E-06 -0.3010616E-06  0.6271209E+02  0.1381057E+01 -0.1646133E-09 -0.2483532E-08  0.1764628E-06  0.3336287E-07