VARIABLES="w (rad/s)"
"A   1   1" "B   1   1"
"A   1   2" "B   1   2"
"A   1   3" "B   1   3"
"A   1   4" "B   1   4"
"A   1   5" "B   1   5"
"A   1   6" "B   1   6"
Zone t="Motion of body    1 in DoF   1",I=   286,F=POINT
  0.1500000E+00  0.3291239E+03  0.1206046E-02 -0.4470348E-06 -0.1818989E-11 -0.7110337E-04  0.2873857E-05  0.6208817E-07 -0.6821210E-12 -0.5852869E+02 -0.1456806E-03  0.1582007E-04  0.4911271E-10
  0.1600000E+00  0.3289514E+03  0.1467409E-02  0.0000000E+00  0.3183231E-11 -0.1695007E-04  0.1316744E-06 -0.5820766E-07 -0.6821210E-12 -0.5859704E+02 -0.1773924E-03  0.6658956E-05  0.2000888E-10
  0.1700000E+00  0.3317859E+03  0.1767369E-02  0.1753078E-06  0.8185452E-11  0.1106192E-03  0.6566856E-06 -0.7669716E-07  0.2273737E-12 -0.5894599E+02 -0.2135536E-03 -0.7099965E-05  0.3637979E-10
  0.1800000E+00  0.3289483E+03  0.2096774E-02  0.3311369E-06 -0.6366463E-11  0.1979785E-03  0.1876659E-05  0.6208817E-07  0.1136868E-11 -0.5857713E+02 -0.2533906E-03 -0.8982089E-05  0.4706635E-10
  0.1900000E+00  0.3321730E+03  0.2472804E-02 -0.5489902E-06 -0.7275958E-11 -0.6144768E-04  0.6827322E-06 -0.5882037E-07  0.6821210E-12 -0.5897511E+02 -0.2988639E-03  0.1643049E-04 -0.8185452E-11
  0.2000000E+00  0.3304106E+03  0.2891224E-02  0.2980232E-06 -0.4547474E-11  0.2816319E-04  0.1049363E-05 -0.1862645E-07  0.4092726E-11 -0.5877171E+02 -0.3495642E-03 -0.2384186E-05  0.1309672E-09
  0.2100000E+00  0.3310504E+03  0.3354706E-02  0.1419158E-06 -0.9094947E-12  0.1426254E-04  0.6584760E-06  0.5321844E-07  0.2273737E-11 -0.5887243E+02 -0.4057252E-03  0.7237707E-05 -0.3910827E-10
  0.2200000E+00  0.3308261E+03  0.3863413E-02 -0.6773255E-06 -0.6366463E-11  0.4934317E-04  0.2115145E-05  0.2370639E-06 -0.2273737E-11 -0.5890008E+02 -0.4676538E-03 -0.1662834E-04 -0.3319656E-10
  0.2300000E+00  0.3305479E+03  0.4422429E-02 -0.1943630E-06  0.0000000E+00  0.3592476E-04  0.1605206E-05 -0.3239383E-07  0.3183231E-11 -0.5876371E+02 -0.5348189E-03 -0.7159036E-05 -0.1618901E-09
  0.2400000E+00  0.3311511E+03  0.5035069E-02  0.2483527E-06  0.5456968E-11  0.7298465E-04  0.3411091E-05 -0.1552204E-06  0.0000000E+00 -0.5884678E+02 -0.6089763E-03  0.2576659E-05  0.8185452E-10
  0.2500000E+00  0.3302565E+03  0.5700532E-02 -0.1192093E-06 -0.2910383E-10  0.4884601E-04  0.2139594E-05 -0.1490116E-07  0.2728484E-11 -0.5874115E+02 -0.6897094E-03 -0.3123283E-04  0.8367351E-10
  0.2600000E+00  0.3301284E+03  0.6425383E-02  0.5731216E-07  0.0000000E+00  0.4596435E-04  0.1673683E-05 -0.1289524E-06 -0.1182343E-10 -0.5872159E+02 -0.7773513E-03 -0.6046433E-05  0.1045919E-09
  0.2700000E+00  0.3301355E+03  0.7213219E-02  0.0000000E+00 -0.3637979E-10  0.3747366E-04  0.2322582E-05  0.0000000E+00 -0.5456968E-11 -0.5874036E+02 -0.8728238E-03 -0.6898686E-06 -0.1437002E-09
  0.2800000E+00  0.3305559E+03  0.8069103E-02 -0.2128737E-06  0.1455192E-10 -0.2501266E-05 -0.1462759E-06 -0.3326152E-06  0.4547474E-11 -0.5882160E+02 -0.9767268E-03  0.5694372E-05 -0.2528395E-09
  0.2900000E+00  0.3309304E+03  0.8993838E-02  0.1541499E-06  0.0000000E+00 -0.2551182E-04 -0.1276703E-05 -0.3853749E-07 -0.1818989E-11 -0.5891019E+02 -0.1089235E-02  0.1497824E-04 -0.1418812E-09
  0.3000000E+00  0.3311350E+03  0.9985667E-02  0.1490116E-06  0.1091394E-10 -0.4793207E-05 -0.6789251E-06 -0.7450581E-07  0.2728484E-11 -0.5890315E+02 -0.1209217E-02  0.1462797E-04  0.3437890E-09
  0.3100000E+00  0.3312690E+03  0.1105074E-01 -0.5287509E-06 -0.3637979E-10 -0.3847864E-04 -0.2233528E-05 -0.2403413E-07  0.6366463E-11 -0.5886835E+02 -0.1337509E-02 -0.1165655E-04  0.7112249E-09
  0.3200000E+00  0.3314845E+03  0.1219513E-01 -0.3259629E-06 -0.4001777E-10 -0.3010500E-04 -0.4709691E-06  0.4656613E-07  0.4547474E-11 -0.5890739E+02 -0.1476417E-02 -0.1396984E-05 -0.1055014E-09
  0.3300000E+00  0.3315689E+03  0.1341712E-01 -0.1354651E-06  0.1091394E-10 -0.1368197E-04 -0.1335582E-05 -0.5644379E-07 -0.3637979E-11 -0.5891547E+02 -0.1624417E-02  0.1887480E-04  0.4292815E-09
  0.3400000E+00  0.3316749E+03  0.1472164E-01  0.4382694E-07  0.3637979E-10  0.1332339E-04  0.1173114E-05 -0.2410482E-06 -0.2182787E-10 -0.5891242E+02 -0.1782203E-02 -0.3769117E-05  0.1000444E-08
  0.3500000E+00  0.3316411E+03  0.1611115E-01  0.1702990E-06 -0.4365575E-10  0.7408006E-05  0.1572826E-05  0.2128737E-07 -0.3637979E-11 -0.5890802E+02 -0.1950628E-02  0.1177192E-04  0.7821654E-10
  0.3600000E+00  0.3316530E+03  0.1759161E-01  0.9934107E-06  0.3637979E-10  0.3510051E-04  0.3000780E-05 -0.5174014E-07  0.1818989E-10 -0.5891950E+02 -0.2130083E-02  0.1227276E-04 -0.1018634E-09
  0.3700000E+00  0.3316955E+03  0.1916611E-01  0.6443746E-06  0.7275958E-11 -0.2513061E-04 -0.1466422E-05  0.3020505E-07  0.1273293E-10 -0.5893885E+02 -0.2321480E-02 -0.2315721E-05  0.4256435E-09
  0.3800000E+00  0.3315784E+03  0.2083051E-01  0.1568543E-06 -0.2182787E-10 -0.5764397E-05  0.8156348E-08  0.0000000E+00  0.1091394E-10 -0.5895525E+02 -0.2524085E-02 -0.9764182E-05  0.6621121E-09
  0.3900000E+00  0.3315976E+03  0.2260089E-01  0.6113297E-06  0.2910383E-10  0.1532145E-04  0.6740047E-06 -0.2865608E-06 -0.1455192E-10 -0.5897331E+02 -0.2739591E-02 -0.5712112E-05 -0.2837623E-09
  0.4000000E+00  0.3314658E+03  0.2446944E-01 -0.5215406E-06  0.7275958E-10  0.2384186E-05  0.3874811E-06 -0.1303852E-06  0.2182787E-10 -0.5891308E+02 -0.2964927E-02 -0.8642673E-05  0.1527951E-09
  0.4100000E+00  0.3313697E+03  0.2644754E-01  0.9449517E-06 -0.1455192E-10  0.8177467E-05  0.1752960E-05 -0.7268859E-07 -0.1818989E-10 -0.5887371E+02 -0.3204429E-02 -0.7159827E-05 -0.2655725E-09
  0.4200000E+00  0.3313643E+03  0.2854087E-01 -0.9224528E-06  0.1455192E-10  0.1043081E-04  0.5951078E-06  0.1064369E-06 -0.3637979E-11 -0.5888723E+02 -0.3459066E-02 -0.1908768E-04  0.1266017E-08
  0.4300000E+00  0.3314188E+03  0.3075312E-01  0.3465386E-06  0.6548362E-10  0.3517367E-04  0.4430403E-05 -0.6930772E-07  0.9822543E-10 -0.5890710E+02 -0.3728533E-02 -0.1247539E-05  0.4765752E-09
  0.4400000E+00  0.3316422E+03  0.3309258E-01 -0.1354651E-06  0.4365575E-10 -0.3200363E-04 -0.2742083E-05 -0.3386628E-07 -0.7275958E-11 -0.5893224E+02 -0.4012696E-02  0.1750886E-04  0.9458745E-09
  0.4500000E+00  0.3318521E+03  0.3556145E-01  0.2649095E-06 -0.4365575E-10 -0.3645818E-04 -0.2173154E-05 -0.8278423E-07 -0.7275958E-11 -0.5895673E+02 -0.4312613E-02  0.4106098E-05 -0.1353328E-08
  0.4600000E+00  0.3320855E+03  0.3816207E-01  0.3887259E-06 -0.1455192E-10 -0.3475858E-04 -0.2727342E-05 -0.8098457E-07  0.7275958E-11 -0.5898905E+02 -0.4629024E-02  0.6575947E-05 -0.1942681E-08
  0.4700000E+00  0.3323362E+03  0.4090103E-01 -0.3170460E-06 -0.2910383E-10  0.1046252E-05  0.1605440E-06  0.0000000E+00 -0.2546585E-10 -0.5902524E+02 -0.4962681E-02 -0.2897800E-04 -0.1804437E-08
  0.4800000E+00  0.3325999E+03  0.4377439E-01  0.0000000E+00 -0.1600711E-09  0.1490116E-04  0.2747751E-05 -0.7761022E-07  0.7275958E-11 -0.5906342E+02 -0.5312174E-02 -0.9934108E-05 -0.1964509E-09
  0.4900000E+00  0.3328785E+03  0.4679778E-01 -0.3041053E-06  0.5820766E-10  0.4461225E-04  0.5881986E-05  0.3041053E-07  0.3637979E-11 -0.5910786E+02 -0.5680901E-02 -0.9427265E-05 -0.5093170E-09
  0.5000000E+00  0.3330728E+03  0.4996427E-01  0.1788139E-06  0.4365575E-10  0.7298589E-04  0.8597315E-05  0.5960464E-07  0.7275958E-11 -0.5914941E+02 -0.6067472E-02 -0.3695488E-05 -0.3463356E-08
  0.5100000E+00  0.3332397E+03  0.5328538E-01 -0.2337437E-06 -0.2910383E-10  0.5563100E-04  0.9190262E-05 -0.2921796E-07 -0.5093170E-10 -0.5918145E+02 -0.6472636E-02  0.2766941E-04 -0.5238689E-09
  0.5200000E+00  0.3333722E+03  0.5676541E-01  0.0000000E+00  0.5820766E-10  0.8674196E-04  0.9794923E-05 -0.4298412E-07 -0.4365575E-10 -0.5918425E+02 -0.6896249E-02 -0.2132012E-04 -0.2335582E-08
  0.5300000E+00  0.3333921E+03  0.6040249E-01 -0.1686924E-06  0.1455192E-09  0.5668064E-04  0.7685696E-05 -0.7028850E-07  0.6548362E-10 -0.5915179E+02 -0.7336939E-02 -0.4610926E-05 -0.2408342E-08
  0.5400000E+00  0.3334220E+03  0.6421041E-01 -0.2759474E-06  0.7275958E-10  0.2215858E-04  0.4183676E-05  0.1379737E-07 -0.2910383E-10 -0.5913514E+02 -0.7799854E-02 -0.1688798E-04 -0.5311449E-09
  0.5500000E+00  0.3334743E+03  0.6819765E-01 -0.4876744E-06 -0.2910383E-10  0.4863197E-04  0.3189794E-05  0.1625581E-06  0.7275958E-10 -0.5914669E+02 -0.8286418E-02  0.1882965E-04 -0.5238689E-09
  0.5600000E+00  0.3335291E+03  0.7236737E-01 -0.3193106E-06  0.2910383E-10  0.4853521E-04  0.3913010E-05  0.1729599E-06 -0.6548362E-10 -0.5916492E+02 -0.8795366E-02  0.7078052E-05 -0.5966285E-08
  0.5700000E+00  0.3335978E+03  0.7673177E-01  0.1045696E-06 -0.2037268E-09  0.2512284E-04  0.4443107E-05  0.1176408E-06 -0.1018634E-09 -0.5918080E+02 -0.9328553E-02 -0.5019338E-05 -0.2153683E-08
  0.5800000E+00  0.3335965E+03  0.8128902E-01 -0.1541499E-06 -0.3201421E-09 -0.1867784E-04 -0.1943670E-05 -0.1413041E-06  0.1455192E-10 -0.5917665E+02 -0.9884442E-02 -0.5857698E-05 -0.5835318E-08
  0.5900000E+00  0.3335706E+03  0.8604570E-01  0.5051241E-07 -0.5820766E-10  0.7728399E-05  0.1913068E-05  0.3662150E-06 -0.1018634E-09 -0.5917302E+02 -0.1046478E-01  0.1444655E-04  0.1222361E-08
  0.6000000E+00  0.3335738E+03  0.9102501E-01  0.1490116E-06 -0.5820766E-10 -0.3154079E-05  0.5900365E-06  0.1117587E-06  0.1746230E-09 -0.5917869E+02 -0.1107383E-01  0.1318753E-04 -0.1178705E-08
  0.6100000E+00  0.3335945E+03  0.9622852E-01 -0.6351315E-06 -0.2910383E-09 -0.2393957E-05 -0.3888563E-06  0.1465688E-06 -0.1091394E-09 -0.5918652E+02 -0.1170958E-01 -0.9136122E-05 -0.1804437E-08
  0.6200000E+00  0.3336318E+03  0.1016450E+00 -0.4326143E-06  0.1455192E-09  0.1127201E-04  0.2706103E-05 -0.1201707E-06 -0.7275958E-10 -0.5919838E+02 -0.1237246E-01  0.2550021E-04 -0.1353328E-08
  0.6300000E+00  0.3336949E+03  0.1072855E+00  0.6149685E-06 -0.3201421E-09 -0.1341105E-04 -0.1791777E-05 -0.2365264E-07  0.1455192E-10 -0.5921498E+02 -0.1306228E-01  0.3131609E-04 -0.9458745E-09
  0.6400000E+00  0.3337794E+03  0.1131702E+00 -0.4656613E-06  0.2619345E-09  0.6360933E-04  0.3647583E-05 -0.9313226E-07 -0.4365575E-10 -0.5923479E+02 -0.1378324E-01  0.6193295E-05 -0.2328306E-08
  0.6500000E+00  0.3338827E+03  0.1192986E+00  0.4584973E-06  0.3492460E-09  0.1013508E-03  0.8905248E-05  0.1146243E-07  0.4365575E-10 -0.5926947E+02 -0.1453629E-01  0.1751460E-04 -0.1295120E-08
  0.6600000E+00  0.3339604E+03  0.1256882E+00 -0.4967054E-06  0.2037268E-09  0.4341656E-04  0.3037218E-05 -0.1354651E-06  0.1891749E-09 -0.5929490E+02 -0.1532190E-01  0.5621801E-05 -0.3128662E-08
  0.6700000E+00  0.3340988E+03  0.1323492E+00  0.2224054E-06 -0.4074536E-09 -0.5050826E-04 -0.7645081E-05 -0.1000824E-06 -0.8731149E-10 -0.5932689E+02 -0.1614059E-01 -0.2201813E-05  0.6490154E-08
  0.6799999E+00  0.3343129E+03  0.1392885E+00  0.4820965E-06 -0.5820766E-09  0.1566813E-04  0.4816276E-05  0.1205241E-06  0.5820766E-10 -0.5934862E+02 -0.1698992E-01 -0.1139501E-05  0.5267793E-08
  0.6899999E+00  0.3345193E+03  0.1465058E+00 -0.1295753E-06  0.5820766E-10 -0.4837479E-05  0.1059583E-05  0.1835651E-06  0.1455192E-09 -0.5935300E+02 -0.1787093E-01 -0.6478767E-07 -0.1746230E-09
  0.7000000E+00  0.3347171E+03  0.1540161E+00  0.6386212E-06 -0.1746230E-09  0.2320324E-04  0.1462788E-05 -0.1277242E-06  0.4365575E-09 -0.5935469E+02 -0.1878732E-01  0.7684742E-05  0.4336471E-08
  0.7099999E+00  0.3349442E+03  0.1618329E+00  0.6716017E-06 -0.6984919E-09  0.3412576E-04  0.2782355E-05 -0.5246888E-07 -0.4365575E-10 -0.5938001E+02 -0.1974581E-01 -0.2008509E-04 -0.2124580E-08
  0.7200000E+00  0.3351843E+03  0.1699703E+00 -0.8278423E-07 -0.5820766E-10  0.3621810E-04  0.6672344E-05 -0.1034803E-07  0.1309672E-09 -0.5941785E+02 -0.2074596E-01 -0.1473559E-04  0.2211891E-08
  0.7300000E+00  0.3354247E+03  0.1784366E+00  0.2449506E-06  0.5820766E-09 -0.7675118E-05 -0.4199333E-05  0.1020627E-06  0.2910383E-10 -0.5945612E+02 -0.2178725E-01  0.2312742E-04 -0.1076842E-08
  0.7400000E+00  0.3356714E+03  0.1872419E+00 -0.1610936E-06 -0.2328306E-09  0.6947163E-04  0.1309335E-04 -0.2013670E-07 -0.1018634E-09 -0.5949141E+02 -0.2286941E-01 -0.1347145E-04 -0.4394678E-08
  0.7500000E+00  0.3359273E+03  0.1964134E+00 -0.7947286E-07  0.8731149E-09  0.1266797E-03  0.1963961E-04  0.1986822E-07  0.4365575E-10 -0.5952779E+02 -0.2399829E-01  0.7947286E-05 -0.9080395E-08
  0.7600000E+00  0.3360902E+03  0.2059233E+00  0.7842716E-07 -0.3492460E-09  0.1053669E-03  0.1726212E-04 -0.1960679E-07  0.1455192E-09 -0.5953764E+02 -0.2516436E-01  0.1372475E-05  0.5587935E-08
  0.7700000E+00  0.3362656E+03  0.2158228E+00  0.3096345E-06  0.5238689E-09  0.5263787E-05  0.3233436E-05  0.0000000E+00  0.2910383E-10 -0.5955950E+02 -0.2638278E-01  0.3057641E-05  0.1105946E-08
  0.7800000E+00  0.3364504E+03  0.2261244E+00 -0.3056649E-06  0.0000000E+00  0.2219891E-04  0.4097470E-05  0.5731216E-07 -0.2910383E-10 -0.5958371E+02 -0.2765030E-01  0.8405784E-05 -0.1862645E-08
  0.7900000E+00  0.3366451E+03  0.2368474E+00  0.6790402E-06  0.4074536E-09 -0.7808962E-05  0.1845241E-05  0.1697601E-06 -0.1746230E-09 -0.5960929E+02 -0.2897185E-01 -0.9431114E-06 -0.9255018E-08
  0.8000000E+00  0.3368338E+03  0.2479752E+00  0.1490116E-06  0.6402843E-09 -0.4742295E-04 -0.9372889E-05 -0.1862645E-07 -0.1455192E-09 -0.5963636E+02 -0.3034267E-01  0.9723008E-05 -0.8352799E-08
  0.8099999E+00  0.3370066E+03  0.2594939E+00  0.0000000E+00 -0.1164153E-09  0.6199620E-04  0.5330774E-05  0.3679300E-07 -0.8731149E-10 -0.5966265E+02 -0.3176080E-01  0.5151019E-06  0.1670560E-07
  0.8200001E+00  0.3371871E+03  0.2714189E+00  0.1453772E-06 -0.3492460E-09  0.2809414E-04 -0.3706431E-05 -0.7268858E-07  0.2619345E-09 -0.5968987E+02 -0.3322976E-01  0.3380019E-05 -0.3725290E-08
  0.8299999E+00  0.3373738E+03  0.2838073E+00  0.4308770E-06  0.1164153E-09  0.1206456E-04 -0.1322245E-05  0.1077193E-06 -0.2910383E-10 -0.5971761E+02 -0.3475796E-01  0.4703741E-05  0.9196810E-08
  0.8400000E+00  0.3375445E+03  0.2966517E+00  0.5676633E-06  0.1047738E-08 -0.2377090E-04 -0.9613927E-05  0.1064369E-06 -0.2910383E-09 -0.5975253E+02 -0.3634904E-01  0.9011655E-05 -0.2037268E-08
  0.8500000E+00  0.3376896E+03  0.3099870E+00 -0.5609849E-06 -0.1513399E-08 -0.2468334E-04 -0.1245178E-05 -0.3506155E-07 -0.2910383E-09 -0.5978628E+02 -0.3800183E-01 -0.5890341E-05  0.1222361E-08
  0.8600000E+00  0.3378174E+03  0.3238321E+00 -0.2772309E-06  0.1280569E-08  0.1937151E-04  0.4744856E-05  0.0000000E+00  0.5820766E-10 -0.5981450E+02 -0.3971972E-01 -0.8005042E-05 -0.6519258E-08
  0.8700000E+00  0.3379564E+03  0.3381622E+00  0.4110665E-06  0.6984919E-09 -0.7008684E-04 -0.1642492E-04  0.3425554E-07  0.4365575E-09 -0.5984483E+02 -0.4149851E-01  0.6028975E-05 -0.1862645E-08
  0.8800000E+00  0.3380717E+03  0.3529973E+00  0.6095930E-06  0.8149073E-09 -0.4294244E-04 -0.1046428E-04  0.6773255E-07  0.2910383E-10 -0.5985618E+02 -0.4333224E-01  0.3725290E-06 -0.1629815E-07
  0.8900000E+00  0.3381633E+03  0.3683437E+00  0.0000000E+00  0.1164153E-08 -0.6764123E-05 -0.2022891E-05 -0.1339430E-06 -0.1164153E-09 -0.5985302E+02 -0.4522205E-01  0.1948871E-04  0.1920853E-08
  0.9000000E+00  0.3382407E+03  0.3842385E+00  0.8609560E-06 -0.9313226E-09  0.1158979E-05 -0.5851965E-05 -0.9934108E-07 -0.5820766E-09 -0.5984457E+02 -0.4718026E-01 -0.1721912E-04  0.2677552E-07
  0.9100000E+00  0.3383471E+03  0.4007060E+00  0.1964988E-06  0.8149073E-09 -0.3071931E-04 -0.8880044E-05 -0.1146243E-06 -0.2328306E-09 -0.5984779E+02 -0.4921355E-01  0.1329642E-04  0.5529728E-08
  0.9200000E+00  0.3384687E+03  0.4177986E+00 -0.1295753E-06 -0.1280569E-08 -0.4978931E-04 -0.1599651E-04 -0.1619691E-06 -0.4656613E-09 -0.5986483E+02 -0.5133036E-01 -0.7094248E-05  0.1763692E-07
  0.9299999E+00  0.3386132E+03  0.4355333E+00 -0.6409103E-07  0.1746230E-08 -0.2348936E-04 -0.6010523E-05 -0.9613654E-07 -0.1164153E-09 -0.5989168E+02 -0.5353210E-01 -0.9837972E-05 -0.1920853E-07
  0.9399999E+00  0.3387514E+03  0.4539346E+00 -0.5706829E-06 -0.2328306E-09  0.1981538E-04 -0.1093606E-05  0.4755690E-07 -0.2910383E-09 -0.5991855E+02 -0.5582005E-01 -0.2089333E-04  0.8963980E-08
  0.9500000E+00  0.3389041E+03  0.4730224E+00  0.5019339E-06 -0.4656613E-09  0.1348947E-04 -0.4771631E-05 -0.1097980E-06 -0.2328306E-09 -0.5994565E+02 -0.5819327E-01  0.1179545E-04 -0.5355105E-08
  0.9599999E+00  0.3390457E+03  0.4928204E+00 -0.5587936E-06  0.1164153E-08 -0.5653128E-04 -0.1608522E-04  0.7761022E-07 -0.1746230E-09 -0.5997049E+02 -0.6065607E-01  0.1210719E-04  0.1513399E-08
  0.9700000E+00  0.3392304E+03  0.5133679E+00 -0.6759290E-06 -0.3492460E-09 -0.2921857E-04 -0.2866611E-05  0.3072404E-07 -0.3492460E-09 -0.5999766E+02 -0.6321000E-01 -0.8264768E-05 -0.1187436E-07
  0.9800000E+00  0.3393547E+03  0.5346568E+00  0.2432843E-06  0.2328306E-09 -0.7824630E-04 -0.1462724E-04  0.9123160E-07  0.6402843E-09 -0.6000797E+02 -0.6585203E-01  0.4956917E-05 -0.1466833E-07
  0.9900000E+00  0.3395140E+03  0.5567752E+00  0.2408268E-06  0.2328306E-08 -0.6276550E-04 -0.1010438E-04 -0.3913436E-06  0.7566996E-09 -0.6003376E+02 -0.6860642E-01 -0.1463023E-04  0.7217750E-08
  0.1000000E+01  0.3397033E+03  0.5797535E+00  0.5364418E-06 -0.2328306E-08 -0.3048778E-04 -0.1184933E-04 -0.5960464E-07  0.7566996E-09 -0.6006293E+02 -0.7146841E-01  0.1758337E-05  0.1338776E-07
  0.1010000E+01  0.3399329E+03  0.6036318E+00 -0.1770435E-06 -0.2095476E-08  0.2685160E-04  0.6939052E-05 -0.7376813E-07 -0.1746230E-08 -0.6009653E+02 -0.7444282E-01 -0.3334319E-05  0.1862645E-08
  0.1020000E+01  0.3402483E+03  0.6284721E+00  0.5843593E-07 -0.2328306E-09  0.1554396E-04  0.2793269E-05  0.4382694E-07  0.2910383E-09 -0.6014057E+02 -0.7753861E-01 -0.5171580E-05 -0.2211891E-07
  0.1030000E+01  0.3405590E+03  0.6541767E+00 -0.2893429E-06 -0.1862645E-08 -0.7407180E-05 -0.6795162E-05  0.2893429E-07 -0.4656613E-09 -0.6018653E+02 -0.8074640E-01 -0.2112203E-05  0.2095476E-08
  0.1040000E+01  0.3408754E+03  0.6807070E+00 -0.4584973E-06 -0.2561137E-08  0.3573413E-04  0.3669411E-06  0.1432804E-07  0.5238689E-09 -0.6023362E+02 -0.8404972E-01  0.2980232E-05  0.1292210E-07
  0.1050000E+01  0.3412047E+03  0.7081335E+00 -0.1135327E-06  0.2793968E-08 -0.3096603E-04 -0.9321840E-05  0.4257475E-07  0.5820766E-09 -0.6028247E+02 -0.8746659E-01 -0.1390775E-05 -0.9778887E-08
  0.1060000E+01  0.3415463E+03  0.7365903E+00  0.0000000E+00 -0.2328306E-09 -0.6668973E-04 -0.2115511E-04  0.1405770E-06  0.1746230E-09 -0.6033255E+02 -0.9102576E-01  0.1163978E-04 -0.2642628E-07
  0.1070000E+01  0.3418773E+03  0.7660762E+00  0.1671158E-06  0.2095476E-08 -0.5940967E-04 -0.1405063E-04  0.3342316E-06 -0.6402843E-09 -0.6038556E+02 -0.9471757E-01  0.8105118E-05  0.1268927E-07
  0.1080000E+01  0.3421954E+03  0.7966560E+00 -0.5518949E-06 -0.9313226E-09 -0.8388802E-05 -0.7860595E-05  0.1379737E-07 -0.1164153E-09 -0.6044230E+02 -0.9855516E-01  0.2097200E-05 -0.1222361E-07
  0.1090000E+01  0.3424684E+03  0.8283429E+00 -0.5468316E-07  0.9313226E-09 -0.6176463E-04 -0.2311030E-04  0.1503787E-06  0.1164153E-09 -0.6048836E+02 -0.1025359E+00 -0.2069757E-04  0.4877802E-07
  0.1100000E+01  0.3427563E+03  0.8611557E+00 -0.7586045E-06 -0.2793968E-08 -0.2644279E-04 -0.2316665E-05 -0.1625581E-06  0.0000000E+00 -0.6053653E+02 -0.1066642E+00 -0.1522628E-04 -0.6519258E-07
  0.1110000E+01  0.3430409E+03  0.8950913E+00  0.1610936E-06 -0.2328306E-08 -0.1664634E-05  0.1050625E-04  0.1208202E-06 -0.6984919E-09 -0.6058451E+02 -0.1109375E+00 -0.1226996E-04 -0.6402843E-08
  0.1120000E+01  0.3433028E+03  0.9301369E+00 -0.1064369E-06 -0.1164153E-08 -0.1200076E-04 -0.2644956E-06  0.9313226E-07 -0.8149073E-09 -0.6061659E+02 -0.1153315E+00  0.2980232E-05  0.6053597E-08
  0.1130000E+01  0.3436551E+03  0.9663023E+00 -0.1582424E-06 -0.4423782E-08  0.4647052E-04  0.1295749E-04 -0.7912121E-07  0.5820766E-09 -0.6065065E+02 -0.1198452E+00 -0.3560454E-05  0.1501758E-07
  0.1140000E+01  0.3438918E+03  0.1003615E+01  0.8888412E-06 -0.6519258E-08  0.5523887E-04  0.1712563E-04  0.7842716E-07  0.8149073E-09 -0.6066557E+02 -0.1244986E+00  0.6561740E-05 -0.4575122E-07
  0.1150000E+01  0.3441351E+03  0.1042222E+01 -0.2591506E-06  0.2328306E-08  0.5768693E-04  0.1774705E-04  0.1295753E-07 -0.4656613E-09 -0.6068042E+02 -0.1293157E+00 -0.2314215E-04 -0.1583248E-07
  0.1160000E+01  0.3443974E+03  0.1082222E+01 -0.5138332E-07  0.1396984E-08  0.2186360E-04  0.4657544E-05  0.3853749E-07  0.4656613E-09 -0.6071011E+02 -0.1343309E+00  0.3653354E-04 -0.2922025E-07
  0.1170000E+01  0.3446706E+03  0.1123674E+01  0.4075531E-06 -0.4190952E-08  0.3010799E-04  0.1312047E-04 -0.1273604E-07 -0.1396984E-08 -0.6074819E+02 -0.1395441E+00  0.2190598E-05 -0.1047738E-07
  0.1180000E+01  0.3449547E+03  0.1166616E+01 -0.5051241E-06  0.2793968E-08  0.7450581E-05  0.4720874E-05  0.1010248E-06 -0.2328306E-09 -0.6079262E+02 -0.1449532E+00  0.1818447E-05 -0.3259629E-07
  0.1190000E+01  0.3452407E+03  0.1211128E+01  0.4007035E-06  0.2328306E-08 -0.7763630E-06  0.3150664E-05  0.2754836E-06 -0.1047738E-08 -0.6083730E+02 -0.1505641E+00 -0.8114245E-05  0.9546056E-08
  0.1200000E+01  0.3455274E+03  0.1257248E+01  0.6953875E-06 -0.1862645E-08  0.9909272E-05  0.1841225E-05 -0.3104408E-06  0.2793968E-08 -0.6088004E+02 -0.1563786E+00  0.7698933E-05 -0.2561137E-08
  0.1210000E+01  0.3458152E+03  0.1305040E+01  0.1477801E-06  0.3725290E-08  0.2995010E-04  0.1702574E-04 -0.2463002E-07 -0.1396984E-08 -0.6092184E+02 -0.1624044E+00 -0.2221628E-04 -0.6984919E-08
  0.1220000E+01  0.3461081E+03  0.1354593E+01  0.1465688E-06  0.4656613E-08  0.6170546E-04  0.2303743E-04 -0.6107033E-07  0.6984919E-09 -0.6096408E+02 -0.1686574E+00 -0.3449252E-04 -0.3143214E-07
  0.1230000E+01  0.3463498E+03  0.1405870E+01 -0.5815087E-06 -0.2793968E-08  0.1003587E-03  0.3479165E-04 -0.2422953E-07  0.1629815E-08 -0.6099194E+02 -0.1751168E+00 -0.1620955E-04  0.6728806E-07
  0.1240000E+01  0.3465876E+03  0.1459049E+01  0.2884096E-06 -0.2328306E-08  0.4162711E-04  0.1702178E-04  0.6008533E-07 -0.1280569E-08 -0.6101975E+02 -0.1818219E+00 -0.1107973E-04  0.5098991E-07
  0.1250000E+01  0.3468322E+03  0.1514196E+01 -0.5245209E-06  0.3725290E-08  0.5676747E-04  0.1870980E-04 -0.3576279E-07 -0.1513399E-08 -0.6105682E+02 -0.1887909E+00 -0.4339218E-05 -0.3026798E-08
  0.1260000E+01  0.3470867E+03  0.1571421E+01 -0.2365264E-06 -0.1862645E-08  0.1421523E-04  0.6143469E-05  0.1537421E-06  0.8149073E-09 -0.6109502E+02 -0.1960282E+00 -0.6953875E-05 -0.4912727E-07
  0.1270000E+01  0.3473543E+03  0.1630834E+01  0.9386558E-07  0.3725290E-08  0.4956103E-04  0.2025906E-04  0.9386558E-07  0.1396984E-08 -0.6113493E+02 -0.2035487E+00 -0.7814310E-05  0.4516914E-07
  0.1280000E+01  0.3476181E+03  0.1692463E+01  0.2793968E-06  0.1862645E-08  0.7087365E-04  0.2934318E-04 -0.1396984E-06  0.9313226E-09 -0.6117431E+02 -0.2113534E+00 -0.3608875E-05  0.2514571E-07
  0.1290000E+01  0.3478892E+03  0.1756283E+01 -0.9241030E-07  0.2793968E-08  0.7097112E-04  0.3063260E-04 -0.1155129E-06 -0.6984919E-09 -0.6121629E+02 -0.2194419E+00 -0.7392825E-05 -0.4470348E-07
  0.1300000E+01  0.3481632E+03  0.1822204E+01  0.4584973E-07  0.4656613E-09  0.1416298E-03  0.5663512E-04 -0.1146243E-07  0.1164153E-08 -0.6125920E+02 -0.2277893E+00 -0.3347030E-05 -0.1187436E-07
  0.1310000E+01  0.3484351E+03  0.1890193E+01  0.3184981E-06 -0.1396984E-08  0.6260763E-04  0.3100093E-04  0.1592491E-06  0.2328306E-09 -0.6130207E+02 -0.2363918E+00 -0.2045213E-04 -0.2188608E-07
  0.1320000E+01  0.3487368E+03  0.1960605E+01 -0.1128876E-05  0.2328306E-08  0.5477305E-04  0.2389355E-04 -0.5644379E-07  0.1164153E-08 -0.6134932E+02 -0.2453154E+00 -0.1293692E-04 -0.1071021E-07
  0.1330000E+01  0.3490422E+03  0.2033602E+01  0.1792621E-06  0.1396984E-08  0.8089202E-04  0.3060093E-04  0.4481552E-07  0.6984919E-09 -0.6139725E+02 -0.2546004E+00  0.6117319E-05 -0.2607703E-07
  0.1340000E+01  0.3493538E+03  0.2109321E+01  0.5337729E-06  0.2793968E-08  0.1628007E-04  0.5982351E-05  0.4448108E-07 -0.2561137E-08 -0.6145041E+02 -0.2642415E+00  0.1570182E-04  0.1001172E-07
  0.1350000E+01  0.3496520E+03  0.2187816E+01  0.5298190E-06  0.1862645E-08  0.3814697E-04  0.1639221E-04 -0.1214169E-06  0.1396984E-08 -0.6150669E+02 -0.2742658E+00 -0.1505569E-04  0.8591451E-07
  0.1360000E+01  0.3499256E+03  0.2269143E+01 -0.6135772E-06 -0.9313226E-08  0.3812944E-04  0.1275679E-04  0.2191347E-06  0.2793968E-08 -0.6155656E+02 -0.2846651E+00  0.8699649E-05 -0.1378357E-06
  0.1370000E+01  0.3502047E+03  0.2353325E+01 -0.1740282E-06 -0.6519258E-08  0.1805542E-04  0.1064781E-04  0.4350704E-07  0.4656613E-09 -0.6160695E+02 -0.2954539E+00  0.1002837E-04 -0.1909211E-07
  0.1380000E+01  0.3504863E+03  0.2440407E+01  0.6046848E-06  0.4656613E-08 -0.3347362E-04 -0.1855148E-04 -0.1079794E-06  0.4656613E-09 -0.6165830E+02 -0.3066349E+00  0.6824300E-05 -0.1862645E-07
  0.1390000E+01  0.3507895E+03  0.2530268E+01 -0.5145725E-06  0.5587935E-08  0.2688641E-04  0.3958587E-05  0.4288104E-07 -0.6984919E-09 -0.6171069E+02 -0.3181646E+00  0.1039865E-04 -0.1611188E-06
  0.1400000E+01  0.3510735E+03  0.2622793E+01  0.5108969E-06 -0.6519258E-08  0.5372933E-04  0.2059480E-04  0.2128737E-07 -0.1164153E-08 -0.6174115E+02 -0.3299100E+00  0.5066395E-05 -0.9266660E-07
  0.1410000E+01  0.3513519E+03  0.2718172E+01 -0.1690912E-06  0.9313226E-08  0.6907375E-04  0.3065495E-04 -0.2536368E-06  0.1396984E-08 -0.6176663E+02 -0.3420060E+00 -0.2126322E-04  0.4749745E-07
  0.1420000E+01  0.3516375E+03  0.2816626E+01  0.3358008E-06  0.3725290E-08  0.7727616E-04  0.4450884E-04  0.1679004E-06  0.2095476E-08 -0.6179103E+02 -0.3544947E+00 -0.1017896E-04  0.9965152E-07
  0.1430000E+01  0.3519467E+03  0.2918420E+01 -0.3334526E-06  0.9313226E-09  0.6789928E-04  0.2930220E-04 -0.6252235E-07 -0.3259629E-08 -0.6181762E+02 -0.3674178E+00  0.1371324E-04  0.1676381E-07
  0.1440000E+01  0.3523051E+03  0.3023881E+01  0.9934107E-06 -0.1024455E-07  0.7351239E-04  0.3677513E-04 -0.1034803E-06 -0.1164153E-08 -0.6186358E+02 -0.3808765E+00  0.1564622E-04  0.6007031E-07
  0.1450000E+01  0.3527279E+03  0.3133272E+01  0.1150986E-05  0.0000000E+00  0.3555725E-04  0.1660502E-04 -0.6165997E-07  0.0000000E+00 -0.6192206E+02 -0.3948754E+00 -0.9701170E-05  0.1755543E-06
  0.1460000E+01  0.3531962E+03  0.3246754E+01 -0.8165020E-07  0.0000000E+00  0.4645896E-04  0.1151301E-04 -0.8165020E-07 -0.1629815E-08 -0.6199202E+02 -0.4094210E+00 -0.2000430E-04  0.3911555E-07
  0.1470000E+01  0.3536638E+03  0.3364261E+01 -0.2432843E-06  0.1117587E-07  0.6276734E-04  0.2907030E-04 -0.1216421E-06 -0.2793968E-08 -0.6206292E+02 -0.4245005E+00  0.1131272E-04  0.6565824E-07
  0.1480000E+01  0.3541379E+03  0.3485903E+01  0.2416404E-06 -0.8381903E-08  0.1046303E-03  0.3700051E-04 -0.1208202E-06  0.9313226E-09 -0.6213414E+02 -0.4401206E+00 -0.1586772E-04  0.6426126E-07
  0.1490000E+01  0.3546183E+03  0.3612057E+01 -0.8000623E-07  0.4656613E-08  0.1098886E-03  0.5590450E-04 -0.1000078E-06 -0.2328306E-08 -0.6220436E+02 -0.4563275E+00 -0.1860145E-04  0.7078052E-07
  0.1500000E+01  0.3551089E+03  0.3742682E+01 -0.4768372E-06 -0.1396984E-07  0.1024008E-03  0.4748069E-04 -0.1788139E-06  0.1862645E-08 -0.6227534E+02 -0.4731147E+00 -0.4212061E-05 -0.3054738E-06
  0.1510000E+01  0.3556056E+03  0.3878091E+01 -0.3157862E-06 -0.8381903E-08  0.5545995E-04  0.1683645E-04 -0.3947327E-07 -0.1862645E-08 -0.6234565E+02 -0.4905222E+00 -0.1207882E-04 -0.1150183E-06
  0.1520000E+01  0.3560393E+03  0.4018167E+01 -0.5489902E-06 -0.3725290E-08  0.9289697E-04  0.4514772E-04  0.1764611E-06  0.3725290E-08 -0.6239782E+02 -0.5084920E+00  0.2039106E-05  0.2197921E-06
  0.1530000E+01  0.3564801E+03  0.4163361E+01  0.1558291E-06  0.1862645E-08  0.1052236E-03  0.5459599E-04  0.9739321E-07  0.4656613E-09 -0.6245488E+02 -0.5271518E+00  0.1281695E-04 -0.2468005E-07
  0.1540000E+01  0.3569378E+03  0.4313940E+01 -0.3870431E-06  0.9313226E-08  0.8561394E-04  0.4869327E-04  0.0000000E+00  0.0000000E+00 -0.6252023E+02 -0.5465477E+00  0.4412292E-05  0.1746230E-06
  0.1550000E+01  0.3574078E+03  0.4470062E+01  0.0000000E+00  0.1862645E-08  0.1211320E-03  0.6488059E-04  0.9613652E-07 -0.4656613E-08 -0.6258728E+02 -0.5666659E+00 -0.2461095E-05 -0.1583248E-07
  0.1560000E+01  0.3578819E+03  0.4632118E+01 -0.8405784E-06  0.1303852E-07  0.7519355E-04  0.2683606E-04  0.1910405E-06 -0.3259629E-08 -0.6265499E+02 -0.5875676E+00  0.3820811E-07 -0.1415610E-06
  0.1570000E+01  0.3583656E+03  0.4800066E+01  0.1063013E-05  0.0000000E+00  0.7748604E-04  0.3148708E-04  0.2467708E-06 -0.1396984E-08 -0.6272403E+02 -0.6092438E+00 -0.7934631E-05  0.2859160E-06
  0.1580000E+01  0.3588531E+03  0.4974220E+01  0.7544892E-06  0.2048910E-07  0.1869624E-03  0.1028189E-03 -0.5658669E-07 -0.3725290E-08 -0.6279476E+02 -0.6317425E+00 -0.4451486E-05 -0.1993030E-06
  0.1590000E+01  0.3593294E+03  0.5154105E+01  0.4498464E-06 -0.1117587E-07  0.1613824E-03  0.8846633E-04  0.2811540E-06 -0.2793968E-08 -0.6286469E+02 -0.6549833E+00  0.1075883E-04  0.1769513E-07
  0.1600000E+01  0.3598169E+03  0.5339948E+01 -0.1490116E-06 -0.3725290E-08  0.9346753E-04  0.5334523E-04 -0.3725290E-07 -0.4656613E-09 -0.6293605E+02 -0.6789606E+00  0.8940697E-06 -0.3352761E-07
  0.1610000E+01  0.3603184E+03  0.5532049E+01  0.1480861E-06  0.9313226E-08  0.1595257E-03  0.9599328E-04 -0.1295753E-06  0.0000000E+00 -0.6300938E+02 -0.7037707E+00 -0.2406399E-05 -0.3352761E-07
  0.1620000E+01  0.3608227E+03  0.5731255E+01  0.2943439E-06  0.1676381E-07  0.1496003E-03  0.8701161E-04  0.1287755E-06  0.9313226E-09 -0.6308344E+02 -0.7295858E+00  0.1055959E-04  0.1862645E-08
  0.1630000E+01  0.3613436E+03  0.5937800E+01 -0.3656727E-06  0.0000000E+00  0.9299056E-04  0.4579686E-04  0.1097018E-06 -0.3259629E-08 -0.6316023E+02 -0.7563738E+00 -0.2925381E-05  0.2840534E-06
  0.1640000E+01  0.3618518E+03  0.6151884E+01 -0.5815087E-06 -0.2793968E-07  0.1016187E-03  0.5369354E-04 -0.2362379E-06  0.8847564E-08 -0.6324490E+02 -0.7842236E+00 -0.1795408E-04  0.2728775E-06
  0.1650000E+01  0.3623500E+03  0.6373878E+01 -0.1444961E-06  0.7450581E-08  0.1670375E-03  0.9417254E-04 -0.9031007E-07  0.8847564E-08 -0.6332854E+02 -0.8131809E+00 -0.6068837E-05  0.6612390E-07