VARIABLES="w (rad/s)"
"A   1   1" "B   1   1"
"A   1   2" "B   1   2"
"A   1   3" "B   1   3"
"A   1   4" "B   1   4"
"A   1   5" "B   1   5"
"A   1   6" "B   1   6"
Zone t="Motion of body    1 in DoF   1",I=   286,F=POINT
  0.1500000E+00  0.8536214E+03  0.5906641E-02  0.5960464E-06  0.2000888E-10 -0.2990166E-03 -0.8752531E-05  0.9934107E-07 -0.9094947E-12 -0.1477743E+03 -0.7357914E-03 -0.5563100E-04  0.4802132E-09
  0.1600000E+00  0.8514197E+03  0.7178259E-02  0.4656613E-06 -0.1455192E-10 -0.1295470E-03 -0.4275698E-05  0.2793968E-06  0.7275958E-11 -0.1475686E+03 -0.8941483E-03  0.4693866E-04 -0.7094059E-10
  0.1700000E+00  0.8566990E+03  0.8645568E-02  0.2629617E-06 -0.1818989E-11  0.2366655E-04  0.1084010E-05  0.8765389E-07  0.0000000E+00 -0.1482470E+03 -0.1076544E-02 -0.6924657E-04 -0.6648406E-09
  0.1800000E+00  0.8530405E+03  0.1026022E-01 -0.8278423E-07  0.9094947E-11 -0.3973643E-04 -0.2121727E-05  0.0000000E+00  0.3637979E-11 -0.1476005E+03 -0.1277555E-02  0.3390014E-04  0.2146407E-09
  0.1900000E+00  0.8601305E+03  0.1211137E-01  0.1568543E-06 -0.1455192E-10 -0.4007628E-04 -0.1613471E-05  0.1568543E-06  0.0000000E+00 -0.1487777E+03 -0.1509709E-02  0.1050924E-03 -0.9331416E-09
  0.2000000E+00  0.8568482E+03  0.1415295E-01 -0.3725290E-06  0.3274181E-10 -0.9447336E-04 -0.2574772E-05  0.0000000E+00  0.7275958E-11 -0.1483698E+03 -0.1764253E-02  0.2104789E-04 -0.4420144E-09
  0.2100000E+00  0.8564047E+03  0.1640903E-01  0.1419158E-06  0.1818989E-10 -0.9785096E-04 -0.4667025E-05 -0.2838316E-06 -0.7275958E-11 -0.1482717E+03 -0.2045727E-02 -0.2565128E-04  0.1327862E-09
  0.2200000E+00  0.8564910E+03  0.1890594E-01 -0.1354651E-06  0.4001777E-10 -0.6434592E-05 -0.1057037E-05 -0.2709302E-06 -0.1091394E-10 -0.1483417E+03 -0.2357834E-02  0.5896118E-04 -0.1093213E-08
  0.2300000E+00  0.8561810E+03  0.2164670E-01  0.6478766E-06 -0.4729372E-10 -0.3757684E-04 -0.1434233E-05 -0.1295753E-06  0.1818989E-10 -0.1481062E+03 -0.2697942E-02 -0.4195001E-04 -0.5802576E-09
  0.2400000E+00  0.8573832E+03  0.2465365E-01  0.2483527E-06  0.4365575E-10 -0.1090268E-03 -0.6754661E-05  0.2483527E-06 -0.7275958E-11 -0.1481511E+03 -0.3071686E-02  0.7469207E-04  0.1091394E-09
  0.2500000E+00  0.8561393E+03  0.2791708E-01 -0.2384186E-06 -0.2182787E-10  0.1865625E-04 -0.6503251E-06  0.5960464E-07  0.1455192E-10 -0.1482013E+03 -0.3481384E-02  0.1102686E-04  0.1091394E-09
  0.2600000E+00  0.8555182E+03  0.3146782E-01 -0.4584973E-06 -0.1091394E-09  0.1631104E-03  0.1070755E-04 -0.1719365E-06 -0.5093170E-10 -0.1481687E+03 -0.3925873E-02 -0.5324300E-04  0.7530616E-09
  0.2700000E+00  0.8555172E+03  0.3532913E-01 -0.7726528E-06 -0.7275958E-11 -0.1175536E-03 -0.6822032E-05 -0.5518948E-07  0.2182787E-10 -0.1481234E+03 -0.4406907E-02 -0.1363180E-04  0.2019078E-08
  0.2800000E+00  0.8562927E+03  0.3951978E-01 -0.6386212E-06 -0.1455192E-10 -0.7024833E-04 -0.7054987E-05 -0.2128737E-06  0.7275958E-11 -0.1482634E+03 -0.4931112E-02 -0.6050936E-04 -0.5176844E-08
  0.2900000E+00  0.8568499E+03  0.4403505E-01 -0.1027666E-06 -0.1091394E-09 -0.1698732E-03 -0.1053014E-04 -0.2055333E-06  0.7275958E-11 -0.1484082E+03 -0.5496642E-02  0.1541499E-06 -0.3237801E-09
  0.3000000E+00  0.8573483E+03  0.4890086E-01  0.2980232E-06 -0.7275958E-10 -0.5185604E-04 -0.4664711E-05 -0.1986821E-06 -0.2182787E-10 -0.1484225E+03 -0.6104328E-02 -0.3273288E-04  0.2724846E-08
  0.3100000E+00  0.8578385E+03  0.5412095E-01 -0.9613652E-07 -0.4365575E-10 -0.7075648E-04 -0.5808120E-05 -0.2884096E-06 -0.2910383E-10 -0.1483323E+03 -0.6751495E-02  0.7200625E-04  0.1360604E-08
  0.3200000E+00  0.8588046E+03  0.5973958E-01  0.1117587E-05 -0.4365575E-10  0.4610047E-04  0.4792135E-05  0.2793968E-06 -0.2910383E-10 -0.1484317E+03 -0.7451326E-02  0.4069880E-04 -0.4511094E-09
  0.3300000E+00  0.8593865E+03  0.6574047E-01 -0.8127906E-06  0.1600711E-09  0.2041007E-04 -0.7934868E-06  0.1806201E-06 -0.1455192E-10 -0.1486094E+03 -0.8204402E-02 -0.1693314E-04 -0.1047738E-08
  0.3400000E+00  0.8601522E+03  0.7216148E-01 -0.6135772E-06 -0.1018634E-09  0.2664678E-04  0.3477908E-08  0.1753078E-06 -0.4365575E-10 -0.1487178E+03 -0.9007920E-02 -0.1004952E-03 -0.7275958E-09
  0.3500000E+00  0.8606188E+03  0.7899924E-01  0.0000000E+00  0.5820766E-10 -0.7740089E-04 -0.6885719E-05  0.4257475E-06  0.1455192E-10 -0.1487513E+03 -0.9862092E-02 -0.1060537E-03  0.8229108E-08
  0.3600000E+00  0.8603268E+03  0.8624499E-01 -0.1158979E-05 -0.1455192E-10 -0.3145801E-04 -0.2054760E-05  0.0000000E+00  0.2910383E-10 -0.1486692E+03 -0.1076472E-01  0.1018246E-04 -0.1020089E-07
  0.3700000E+00  0.8600576E+03  0.9394726E-01  0.8054682E-06 -0.5820766E-10  0.2883576E-04  0.5609749E-05 -0.4027341E-06  0.4365575E-10 -0.1486843E+03 -0.1172826E-01 -0.3689044E-04 -0.5507900E-08
  0.3800000E+00  0.8596229E+03  0.1021060E+00 -0.4705630E-06  0.0000000E+00 -0.7779975E-04 -0.9879586E-05 -0.1568543E-06 -0.8731149E-10 -0.1486913E+03 -0.1275299E-01 -0.3788032E-04 -0.6097252E-08
  0.3900000E+00  0.8594897E+03  0.1107712E+00 -0.4584973E-06  0.5820766E-10  0.3362313E-03  0.3049464E-04 -0.2292486E-06  0.0000000E+00 -0.1487270E+03 -0.1384027E-01  0.3316464E-04  0.2604793E-08
  0.4000000E+00  0.8591958E+03  0.1199390E+00 -0.6705523E-06  0.4074536E-09  0.2779067E-04 -0.9679934E-07  0.1490116E-06  0.1455192E-09 -0.1486223E+03 -0.1498200E-01 -0.6843358E-04 -0.2008164E-08
  0.4100000E+00  0.8589629E+03  0.1296311E+00  0.7268859E-07  0.2910383E-10  0.4201401E-04  0.3519468E-05  0.0000000E+00  0.2910383E-10 -0.1485017E+03 -0.1619058E-01 -0.1744526E-05  0.2444722E-08
  0.4200000E+00  0.8592294E+03  0.1399152E+00  0.1419158E-06 -0.1455192E-09  0.5016724E-04  0.1390197E-04  0.7095791E-07 -0.1455192E-09 -0.1485066E+03 -0.1747534E-01 -0.2809933E-04 -0.9313226E-09
  0.4300000E+00  0.8598199E+03  0.1508033E+00 -0.6930772E-07  0.0000000E+00  0.1289817E-03  0.1248854E-04  0.2079232E-06  0.2910383E-10 -0.1486486E+03 -0.1884263E-01 -0.7384738E-04  0.1904846E-07
  0.4400000E+00  0.8607773E+03  0.1623314E+00 -0.2709302E-06  0.3201421E-09  0.3047965E-04 -0.1567591E-05 -0.1354651E-06  0.5820766E-10 -0.1488407E+03 -0.2029279E-01 -0.1313334E-03 -0.3623427E-08
  0.4500000E+00  0.8613477E+03  0.1744610E+00 -0.3973643E-06  0.2910383E-10 -0.2390809E-04 -0.3962370E-05  0.6622739E-07  0.2910383E-10 -0.1489347E+03 -0.2181531E-01  0.4702144E-05  0.2062006E-07
  0.4600000E+00  0.8619236E+03  0.1872325E+00 -0.3887259E-06  0.0000000E+00  0.8623237E-04 -0.2178131E-06  0.4535136E-06  0.2037268E-09 -0.1490155E+03 -0.2341669E-01 -0.5973422E-04  0.8047209E-08
  0.4700000E+00  0.8624197E+03  0.2006688E+00 -0.3804552E-06 -0.1746230E-09 -0.1609959E-03 -0.2499539E-04  0.1902276E-06  0.5820766E-10 -0.1490643E+03 -0.2509867E-01  0.3639688E-04 -0.9982614E-08
  0.4800000E+00  0.8628585E+03  0.2147741E+00 -0.4967054E-06  0.0000000E+00 -0.6978711E-04 -0.1493463E-04  0.6208818E-07  0.0000000E+00 -0.1491131E+03 -0.2686670E-01 -0.2725671E-04 -0.8061761E-08
  0.4900000E+00  0.8634406E+03  0.2296062E+00  0.3649264E-06 -0.2328306E-09  0.8150023E-04  0.1082564E-04 -0.3041053E-06 -0.2910383E-09 -0.1492197E+03 -0.2873093E-01  0.1010846E-03  0.1658918E-08
  0.5000000E+00  0.8639437E+03  0.2451729E+00  0.4768372E-06  0.2328306E-09  0.2849102E-04  0.5556154E-05  0.0000000E+00 -0.5820766E-10 -0.1493188E+03 -0.3069032E-01  0.3403425E-04 -0.6431947E-08
  0.5100000E+00  0.8642743E+03  0.2614861E+00 -0.5843593E-06 -0.5820766E-10  0.8812138E-04  0.5532987E-05 -0.1168719E-06  0.0000000E+00 -0.1493930E+03 -0.3274205E-01  0.2425091E-04  0.1856824E-07
  0.5200000E+00  0.8646360E+03  0.2785845E+00  0.1146243E-06  0.6402843E-09  0.1763495E-03  0.2427673E-04  0.0000000E+00 -0.3492460E-09 -0.1494153E+03 -0.3488628E-01 -0.2258099E-04  0.1717126E-08
  0.5300000E+00  0.8650964E+03  0.2965096E+00  0.4498464E-06  0.5238689E-09  0.3418833E-04  0.9324111E-05  0.2811540E-06 -0.5820766E-10 -0.1494035E+03 -0.3712756E-01  0.2097409E-04  0.2238085E-07
  0.5400000E+00  0.8655729E+03  0.3152906E+00 -0.2207579E-06 -0.2328306E-09  0.7472656E-04  0.7637835E-05  0.2207579E-06  0.1164153E-09 -0.1493796E+03 -0.3947284E-01  0.1396294E-04 -0.3702007E-07
  0.5500000E+00  0.8660320E+03  0.3349454E+00  0.2167442E-06 -0.3492460E-09  0.1868335E-03  0.2652226E-04 -0.3251162E-06 -0.2910383E-09 -0.1493905E+03 -0.4193232E-01  0.8154999E-04  0.4607136E-07
  0.5600000E+00  0.8664597E+03  0.3555037E+00  0.5321843E-06 -0.4656613E-09  0.9898628E-04  0.1103105E-04 -0.2128737E-06  0.1164153E-09 -0.1494751E+03 -0.4452076E-01 -0.7769891E-04 -0.2948218E-07
  0.5700000E+00  0.8669918E+03  0.3770440E+00  0.2091391E-06  0.2328306E-09  0.1272611E-03  0.1492811E-04  0.3137087E-06  0.0000000E+00 -0.1496098E+03 -0.4724110E-01  0.5646756E-04  0.1260196E-07
  0.5800000E+00  0.8673173E+03  0.3995347E+00  0.2055333E-06 -0.5820766E-09  0.4973905E-04  0.1014757E-04  0.0000000E+00 -0.2328306E-09 -0.1497056E+03 -0.5008031E-01 -0.2152961E-04  0.4802132E-08
  0.5900000E+00  0.8675081E+03  0.4230049E+00 -0.2020496E-06  0.1164153E-09  0.2263966E-03  0.3419840E-04 -0.1010248E-06  0.0000000E+00 -0.1497529E+03 -0.5303816E-01  0.1434553E-04  0.3282912E-07
  0.6000000E+00  0.8676986E+03  0.4475444E+00  0.1986821E-06 -0.1164153E-09  0.7679065E-04  0.7717172E-05  0.9934107E-07  0.3492460E-09 -0.1497925E+03 -0.5613323E-01 -0.1688798E-04 -0.2095476E-08
  0.6100000E+00  0.8679262E+03  0.4732088E+00 -0.9771253E-07  0.6984919E-09  0.3117030E-04 -0.1836335E-05 -0.9771253E-07  0.1164153E-09 -0.1498378E+03 -0.5936817E-01  0.5823667E-04  0.1769513E-07
  0.6200000E+00  0.8680344E+03  0.4998817E+00  0.2884096E-06  0.4656613E-09  0.9613652E-06  0.5933922E-05 -0.9613652E-07  0.6984919E-09 -0.1498332E+03 -0.6272066E-01 -0.5955658E-04 -0.3614696E-07
  0.6300000E+00  0.8681316E+03  0.5276431E+00 -0.4730528E-06  0.8149073E-09 -0.1921540E-03 -0.2975052E-04 -0.1892211E-06  0.1164153E-09 -0.1498464E+03 -0.6621494E-01 -0.3869571E-04 -0.2031447E-07
  0.6400000E+00  0.8684795E+03  0.5566709E+00  0.1862645E-06  0.1164153E-09 -0.9499490E-04 -0.1635938E-04  0.0000000E+00  0.2328306E-09 -0.1499224E+03 -0.6988504E-01  0.1899898E-04  0.2363231E-07
  0.6500000E+00  0.8688659E+03  0.5869209E+00  0.9169946E-07 -0.3492460E-09 -0.9087416E-04 -0.1358241E-04  0.9169946E-07  0.2328306E-09 -0.1500023E+03 -0.7370833E-01  0.6400622E-04  0.2968591E-08
  0.6600000E+00  0.8693062E+03  0.6184895E+00  0.2709302E-06  0.1164153E-09  0.2844767E-03  0.5034136E-04 -0.4515503E-06  0.1164153E-09 -0.1500922E+03 -0.7770267E-01  0.4669030E-04  0.3131572E-07
  0.6700000E+00  0.8698522E+03  0.6514087E+00  0.1779243E-06  0.1396984E-08  0.6120596E-04 -0.5574431E-05  0.8896215E-07 -0.8149073E-09 -0.1501919E+03 -0.8187318E-01  0.2086163E-04  0.5267793E-07
  0.6799999E+00  0.8705768E+03  0.6856996E+00  0.4382695E-06  0.2328306E-09 -0.7932678E-04 -0.1307030E-04 -0.8765390E-07  0.1164153E-09 -0.1502709E+03 -0.8619717E-01  0.4742076E-04 -0.3544847E-07
  0.6899999E+00  0.8713055E+03  0.7213922E+00  0.0000000E+00  0.2328306E-09 -0.3774961E-04 -0.2119190E-04 -0.8638356E-07  0.1164153E-09 -0.1503255E+03 -0.9069106E-01  0.8659952E-04 -0.4097819E-07
  0.7000000E+00  0.8720597E+03  0.7585712E+00 -0.5960464E-06  0.0000000E+00  0.1192093E-05  0.1832377E-05  0.2554485E-06  0.2328306E-09 -0.1503764E+03 -0.9536877E-01 -0.2741814E-04  0.3236346E-07
  0.7099999E+00  0.8728231E+03  0.7972400E+00  0.5876515E-06  0.0000000E+00  0.2938257E-05 -0.8603674E-05 -0.5037013E-06 -0.1164153E-09 -0.1504209E+03 -0.1002324E+00  0.4033808E-04  0.1164153E-08
  0.7200000E+00  0.8736143E+03  0.8375124E+00 -0.3311369E-06 -0.4656613E-09 -0.4271666E-04 -0.1305086E-04  0.8278423E-07  0.2328306E-09 -0.1505083E+03 -0.1053195E+00  0.1734329E-04  0.6426126E-07
  0.7300000E+00  0.8744221E+03  0.8794203E+00 -0.9798024E-06  0.4656613E-09 -0.1022260E-03 -0.3156019E-05 -0.3266008E-06  0.0000000E+00 -0.1506329E+03 -0.1106274E+00  0.2073915E-04 -0.4936010E-07
  0.7400000E+00  0.8752932E+03  0.9230515E+00 -0.5638277E-06  0.1396984E-08 -0.8135229E-04 -0.2954388E-05  0.0000000E+00 -0.2328306E-09 -0.1507982E+03 -0.1161731E+00 -0.8175502E-05 -0.1047738E-08
  0.7500000E+00  0.8762449E+03  0.9685223E+00  0.2384186E-06  0.1862645E-08 -0.2008279E-03 -0.4097912E-04  0.2384186E-06  0.0000000E+00 -0.1509783E+03 -0.1219599E+00  0.1379649E-03 -0.4714821E-07
  0.7600000E+00  0.8770062E+03  0.1015727E+01  0.7842716E-07  0.6286427E-08  0.8391707E-04  0.1632562E-04  0.7842716E-07 -0.4656613E-09 -0.1511107E+03 -0.1279571E+00 -0.8274066E-05  0.1862645E-07
  0.7700000E+00  0.8776080E+03  0.1064777E+01  0.5418604E-06 -0.9313226E-09  0.2540551E-03  0.5922141E-04 -0.2322259E-06  0.0000000E+00 -0.1512056E+03 -0.1341847E+00  0.6339767E-04 -0.9068754E-07
  0.7800000E+00  0.8781321E+03  0.1115770E+01 -0.3820811E-06  0.1629815E-08  0.1056072E-03  0.1359824E-04 -0.7641621E-07  0.0000000E+00 -0.1512854E+03 -0.1406579E+00 -0.4019493E-04  0.1357403E-06
  0.7900000E+00  0.8786501E+03  0.1168820E+01  0.7544892E-07  0.2561137E-08 -0.6730043E-04 -0.5681068E-05 -0.7544892E-07  0.4656613E-09 -0.1513633E+03 -0.1473945E+00  0.1467481E-04 -0.5902257E-07
  0.8000000E+00  0.8792297E+03  0.1223983E+01  0.9685755E-06 -0.1629815E-08  0.1225621E-03  0.4309881E-04 -0.7450581E-07 -0.4656613E-09 -0.1514395E+03 -0.1543995E+00 -0.9782612E-04 -0.7334165E-08
  0.8099999E+00  0.8797442E+03  0.1281018E+01 -0.1471720E-06  0.2328306E-09  0.1269358E-03  0.2639694E-04  0.7358599E-07  0.2328306E-09 -0.1514889E+03 -0.1616193E+00 -0.9860523E-05 -0.6915070E-07
  0.8200001E+00  0.8802814E+03  0.1340080E+01 -0.2907543E-06  0.1629815E-08  0.2476500E-03  0.5894504E-04  0.2180658E-06 -0.2328306E-09 -0.1515671E+03 -0.1691088E+00  0.1036176E-03 -0.4202593E-07
  0.8299999E+00  0.8808544E+03  0.1401492E+01 -0.1436257E-06 -0.4656613E-09  0.9680370E-04  0.1082639E-04 -0.7181283E-07 -0.6984919E-09 -0.1516638E+03 -0.1769286E+00  0.9202815E-04  0.5401671E-07
  0.8400000E+00  0.8813932E+03  0.1465191E+01  0.0000000E+00  0.1862645E-08 -0.1455347E-03 -0.2313987E-04  0.7095791E-07  0.6984919E-09 -0.1517632E+03 -0.1850474E+00  0.9150023E-04  0.1466833E-07
  0.8500000E+00  0.8819454E+03  0.1531409E+01 -0.2804924E-06  0.0000000E+00 -0.1943813E-03 -0.5421089E-04 -0.2804924E-06 -0.4656613E-09 -0.1518668E+03 -0.1935036E+00 -0.1157382E-03  0.1187436E-07
  0.8600000E+00  0.8825005E+03  0.1600169E+01  0.2772309E-06 -0.4656613E-09 -0.3604002E-04 -0.1560198E-04  0.1386154E-06 -0.1396984E-08 -0.1519693E+03 -0.2022910E+00 -0.9373870E-04  0.6263144E-07
  0.8700000E+00  0.8830825E+03  0.1671413E+01  0.1370222E-06  0.4656613E-09 -0.2665081E-03 -0.6072735E-04  0.6851108E-07 -0.1396984E-08 -0.1520780E+03 -0.2114080E+00  0.2332802E-04  0.7450581E-07
  0.8800000E+00  0.8835924E+03  0.1745143E+01  0.2709302E-06  0.6053597E-08  0.9706074E-04  0.2715737E-04 -0.4063953E-06 -0.1396984E-08 -0.1521422E+03 -0.2208010E+00 -0.4504215E-04 -0.4214235E-07
  0.8900000E+00  0.8841684E+03  0.1821566E+01  0.0000000E+00 -0.4656613E-09 -0.3891045E-04 -0.2833409E-04  0.0000000E+00  0.4656613E-09 -0.1521942E+03 -0.2305102E+00 -0.3355273E-04 -0.1315493E-06
  0.9000000E+00  0.8847380E+03  0.1900741E+01 -0.2649095E-06  0.2328306E-08  0.1121892E-03  0.3064843E-04 -0.6622739E-07 -0.1396984E-08 -0.1522393E+03 -0.2405663E+00  0.6622739E-06  0.9080395E-07
  0.9100000E+00  0.8853322E+03  0.1982780E+01  0.1309992E-06 -0.1396984E-08  0.5849115E-04  0.2253801E-04  0.1309992E-06 -0.4656613E-09 -0.1522838E+03 -0.2509978E+00  0.3576279E-04 -0.1653098E-07
  0.9200000E+00  0.8859514E+03  0.2067938E+01 -0.6478766E-06 -0.4656613E-09  0.8500140E-04  0.1049228E-04 -0.1943630E-06 -0.2328306E-08 -0.1523285E+03 -0.2618181E+00  0.1030124E-04  0.1359731E-06
  0.9299999E+00  0.8866430E+03  0.2156370E+01 -0.3845462E-06  0.9313226E-09  0.7120513E-04  0.4149042E-06  0.1281821E-06  0.4656613E-09 -0.1524167E+03 -0.2731032E+00  0.1922731E-04  0.6053597E-08
  0.9399999E+00  0.8873303E+03  0.2248166E+01 -0.6340920E-06  0.4656613E-08  0.2147670E-03  0.5027605E-04  0.0000000E+00  0.4656613E-09 -0.1525261E+03 -0.2848545E+00  0.1058934E-04  0.1515727E-06
  0.9500000E+00  0.8880679E+03  0.2343472E+01 -0.1254835E-06  0.2793968E-08 -0.1882252E-06 -0.1378916E-04 -0.1254835E-06  0.2328306E-08 -0.1526654E+03 -0.2970872E+00  0.2384186E-04  0.1718290E-06
  0.9599999E+00  0.8888466E+03  0.2442406E+01 -0.4967054E-06  0.5587935E-08  0.2189229E-03  0.7122848E-04 -0.2483527E-06  0.3259629E-08 -0.1528180E+03 -0.3098016E+00  0.3694247E-04 -0.1022127E-06
  0.9700000E+00  0.8898402E+03  0.2545328E+01  0.7373770E-06 -0.2793968E-08  0.1576758E-03  0.3127242E-04 -0.1843443E-06 -0.4656613E-09 -0.1529959E+03 -0.3230340E+00 -0.2599254E-04  0.3455207E-06
  0.9800000E+00  0.8905885E+03  0.2651841E+01  0.1216421E-06 -0.4656613E-09  0.1084440E-03  0.3361050E-04  0.1216421E-06  0.9313226E-09 -0.1531253E+03 -0.3367131E+00  0.6264570E-04  0.5355105E-07
  0.9900000E+00  0.8913348E+03  0.2762432E+01  0.8428939E-06  0.1862645E-08  0.7513798E-04  0.7609371E-05  0.6020671E-07  0.4656613E-09 -0.1532403E+03 -0.3509104E+00  0.3287286E-04 -0.1392327E-06
  0.1000000E+01  0.8921568E+03  0.2877392E+01  0.0000000E+00  0.4656613E-08 -0.2300739E-04 -0.1445506E-04  0.5960464E-07 -0.2793968E-08 -0.1533626E+03 -0.3656634E+00 -0.6878376E-04  0.1811422E-06
  0.1010000E+01  0.8930753E+03  0.2996962E+01 -0.4721160E-06 -0.2793968E-08  0.1792270E-03  0.4194770E-04  0.0000000E+00 -0.1396984E-08 -0.1534949E+03 -0.3810204E+00 -0.5128360E-04 -0.1140870E-07
  0.1020000E+01  0.8941364E+03  0.3121295E+01 -0.7012311E-06  0.5587935E-08  0.2436778E-04 -0.8314382E-05  0.0000000E+00  0.1862645E-08 -0.1536440E+03 -0.3969887E+00 -0.4663187E-04  0.1231674E-06
  0.1030000E+01  0.8950789E+03  0.3249754E+01 -0.1388846E-05  0.1862645E-08  0.4583192E-04  0.1131231E-04 -0.1736058E-06 -0.3259629E-08 -0.1537605E+03 -0.4134595E+00  0.1197880E-04  0.1569279E-06
  0.1040000E+01  0.8960179E+03  0.3382340E+01 -0.6877459E-06  0.0000000E+00  0.9725874E-04  0.4195143E-04  0.1146243E-06  0.4656613E-09 -0.1538730E+03 -0.4304281E+00 -0.5181019E-04  0.4279427E-06
  0.1050000E+01  0.8970034E+03  0.3519542E+01  0.1135327E-06  0.9313226E-09  0.2386457E-03  0.9188056E-04  0.1702990E-06  0.1862645E-08 -0.1540153E+03 -0.4480357E+00  0.4688899E-04  0.2002344E-07
  0.1060000E+01  0.8980439E+03  0.3661967E+01  0.2249232E-06  0.5587935E-08  0.1968078E-03  0.6644428E-04 -0.5623080E-07 -0.1862645E-08 -0.1541769E+03 -0.4663970E+00 -0.5313810E-04 -0.3175810E-06
  0.1070000E+01  0.8990737E+03  0.3809668E+01  0.5570527E-06  0.1024455E-07  0.7353096E-05 -0.6970949E-05 -0.3899369E-06  0.0000000E+00 -0.1543420E+03 -0.4854534E+00 -0.4177895E-05  0.3958121E-07
  0.1080000E+01  0.9000847E+03  0.3962960E+01  0.0000000E+00  0.4656613E-08  0.1374218E-03  0.4996825E-04  0.0000000E+00 -0.9313226E-09 -0.1545062E+03 -0.5052599E+00 -0.7605111E-04 -0.4232861E-06
  0.1090000E+01  0.9010909E+03  0.4122100E+01 -0.3280990E-06 -0.9313226E-08  0.1367079E-04 -0.4915521E-05  0.1640495E-06  0.0000000E+00 -0.1546711E+03 -0.5258601E+00  0.1760798E-04  0.1941808E-06
  0.1100000E+01  0.9021240E+03  0.4286893E+01  0.2167442E-06  0.2793968E-08  0.1080470E-03  0.2501626E-04  0.1625581E-06  0.0000000E+00 -0.1548408E+03 -0.5472227E+00 -0.7802790E-05 -0.3045425E-06
  0.1110000E+01  0.9031486E+03  0.4457430E+01 -0.3221873E-06 -0.3725290E-08  0.1231829E-03  0.2695341E-04 -0.1073958E-06  0.0000000E+00 -0.1550091E+03 -0.5693517E+00  0.7517703E-06  0.1206063E-06
  0.1120000E+01  0.9041995E+03  0.4633708E+01  0.2128737E-06 -0.7450581E-08  0.1199543E-03  0.5372055E-04  0.3193106E-06  0.9313226E-09 -0.1551518E+03 -0.5921141E+00  0.3629497E-04 -0.2412125E-06
  0.1130000E+01  0.9054674E+03  0.4815678E+01  0.1054949E-06  0.9313226E-08  0.1469545E-03  0.5791895E-04 -0.1054949E-06  0.0000000E+00 -0.1553033E+03 -0.6155360E+00 -0.4367491E-04 -0.1592562E-06
  0.1140000E+01  0.9065037E+03  0.5003699E+01  0.1045696E-06  0.5587935E-08  0.1526715E-03  0.5103555E-04 -0.2091391E-06  0.3725290E-08 -0.1554200E+03 -0.6397388E+00  0.1599914E-04 -0.1159497E-06
  0.1150000E+01  0.9074926E+03  0.5198182E+01 -0.3109808E-06 -0.9313226E-09  0.2193451E-03  0.8073729E-04  0.1036603E-06  0.1862645E-08 -0.1555241E+03 -0.6647694E+00 -0.3524449E-05  0.2719462E-06
  0.1160000E+01  0.9084839E+03  0.5399585E+01 -0.4110665E-06 -0.5587935E-08  0.3604026E-03  0.1344718E-03  0.1027666E-06  0.6519258E-08 -0.1556237E+03 -0.6907074E+00 -0.9593265E-04  0.2142042E-06
  0.1170000E+01  0.9094970E+03  0.5608432E+01  0.2037766E-06  0.4656613E-08  0.2704115E-03  0.9751320E-04 -0.2037766E-06 -0.2793968E-08 -0.1557233E+03 -0.7176327E+00 -0.1451908E-04  0.2882443E-06
  0.1180000E+01  0.9106346E+03  0.5825140E+01  0.6061489E-06 -0.7450581E-08  0.3261081E-03  0.1102667E-03  0.0000000E+00 -0.1862645E-08 -0.1558782E+03 -0.7456922E+00  0.5753364E-04 -0.3133900E-06
  0.1190000E+01  0.9118005E+03  0.6049932E+01 -0.1001759E-06 -0.7450581E-08  0.1936399E-03  0.4541688E-04 -0.1001759E-06  0.9313226E-09 -0.1560499E+03 -0.7748442E+00 -0.6862047E-04 -0.1974404E-06
  0.1200000E+01  0.9130068E+03  0.6283167E+01  0.1986821E-06  0.0000000E+00  0.1636147E-03  0.5556550E-04  0.2980232E-06 -0.1862645E-08 -0.1562448E+03 -0.8051884E+00 -0.1887480E-04  0.2258457E-06
  0.1210000E+01  0.9142467E+03  0.6525128E+01  0.9852007E-07  0.9313226E-08  0.4551627E-03  0.1890603E-03 -0.1970401E-06 -0.5587935E-08 -0.1564556E+03 -0.8367214E+00 -0.7453044E-04  0.1685694E-06
  0.1220000E+01  0.9155320E+03  0.6776173E+01 -0.7817002E-06  0.5587935E-08  0.2920628E-03  0.1242980E-03 -0.9771253E-07  0.2793968E-08 -0.1566753E+03 -0.8694650E+00  0.3341768E-04  0.1788139E-06
  0.1230000E+01  0.9166434E+03  0.7035906E+01  0.1938362E-06 -0.1862645E-08  0.2963756E-03  0.1404397E-03 -0.1938362E-06 -0.9313226E-09 -0.1568619E+03 -0.9033312E+00 -0.2723399E-04 -0.2607703E-07
  0.1240000E+01  0.9177460E+03  0.7305435E+01 -0.4806826E-06 -0.7450581E-08  0.2711050E-03  0.1332834E-03  0.0000000E+00  0.1862645E-08 -0.1570421E+03 -0.9384716E+00  0.3499369E-04 -0.4004687E-07
  0.1250000E+01  0.9188074E+03  0.7584856E+01  0.8583069E-06  0.1862645E-08  0.3016472E-03  0.1267567E-03  0.9536743E-07  0.5587935E-08 -0.1572037E+03 -0.9748757E+00 -0.3328324E-04 -0.5383044E-06
  0.1260000E+01  0.9198737E+03  0.7874888E+01  0.2838316E-06  0.9313226E-08  0.3673728E-03  0.1664162E-03  0.9461055E-07  0.0000000E+00 -0.1573637E+03 -0.1012687E+01 -0.6622739E-05  0.4582107E-06
  0.1270000E+01  0.9209847E+03  0.8176097E+01  0.0000000E+00 -0.3725290E-08  0.3160454E-03  0.1269318E-03 -0.1877312E-06  0.1862645E-08 -0.1575309E+03 -0.1051966E+01 -0.3388548E-04  0.5643815E-06
  0.1280000E+01  0.9220779E+03  0.8488659E+01  0.0000000E+00 -0.3725290E-08  0.4050322E-03  0.1783501E-03  0.0000000E+00  0.1303852E-07 -0.1576957E+03 -0.1092755E+01  0.1322478E-03  0.3883615E-06
  0.1290000E+01  0.9231523E+03  0.8812373E+01 -0.3696412E-06 -0.1862645E-07  0.5551087E-03  0.2619643E-03 -0.1848206E-06 -0.3725290E-08 -0.1578478E+03 -0.1134980E+01 -0.6806019E-04 -0.5774200E-07
  0.1300000E+01  0.9242182E+03  0.9146702E+01  0.2750984E-06  0.1862645E-08  0.3713828E-03  0.1739003E-03 -0.1833989E-06 -0.3725290E-08 -0.1579865E+03 -0.1178475E+01  0.1655175E-04  0.7916242E-07
  0.1310000E+01  0.9252607E+03  0.9491635E+01  0.2729984E-06 -0.1117587E-07  0.3728248E-03  0.1597647E-03  0.5459968E-06  0.0000000E+00 -0.1581220E+03 -0.1223330E+01  0.1455991E-05  0.9508803E-06
  0.1320000E+01  0.9263983E+03  0.9849147E+01 -0.8127906E-06  0.2607703E-07  0.3077767E-03  0.1242850E-03 -0.5418604E-06  0.9313226E-08 -0.1583048E+03 -0.1270047E+01  0.2031977E-04  0.1043081E-05
  0.1330000E+01  0.9275721E+03  0.1022016E+02  0.2688931E-06  0.1117587E-07  0.2002358E-03  0.7745065E-04  0.2688931E-06 -0.1862645E-08 -0.1584963E+03 -0.1318721E+01 -0.9021365E-04 -0.2523884E-06
  0.1340000E+01  0.9287291E+03  0.1060509E+02  0.2668865E-06 -0.5587935E-08  0.4972095E-03  0.2383329E-03  0.1779243E-06 -0.1862645E-08 -0.1586852E+03 -0.1369213E+01 -0.7383859E-04  0.1369044E-06
  0.1350000E+01  0.9299014E+03  0.1100468E+02  0.2649095E-06 -0.1862645E-08  0.3300773E-03  0.1921989E-03  0.3532127E-06  0.3725290E-08 -0.1588793E+03 -0.1421725E+01  0.1778867E-03  0.7450581E-07
  0.1360000E+01  0.9310742E+03  0.1141929E+02  0.1753078E-06 -0.1862645E-08  0.2506025E-03  0.1495387E-03  0.8765389E-07 -0.5587935E-08 -0.1590736E+03 -0.1476314E+01  0.2296532E-04 -0.6528571E-06
  0.1370000E+01  0.9322357E+03  0.1184856E+02  0.4350704E-06 -0.1862645E-08  0.4298496E-04  0.1976080E-04  0.1740282E-06  0.0000000E+00 -0.1592663E+03 -0.1532937E+01  0.4798827E-04 -0.7972121E-06
  0.1380000E+01  0.9334404E+03  0.1229308E+02 -0.2591506E-06 -0.3725290E-08 -0.9709510E-04  0.4326925E-05 -0.2591506E-06 -0.5587935E-08 -0.1594673E+03 -0.1591720E+01  0.6500362E-04  0.6547198E-06
  0.1390000E+01  0.9348266E+03  0.1275330E+02 -0.1715242E-06  0.3725290E-08 -0.4373866E-05  0.6070547E-04  0.0000000E+00 -0.1862645E-08 -0.1596892E+03 -0.1652582E+01 -0.1443376E-03 -0.6137416E-06
  0.1400000E+01  0.9361706E+03  0.1322688E+02  0.2554485E-06  0.3725290E-08 -0.2110856E-03 -0.3309548E-04  0.4257475E-06  0.1303852E-07 -0.1598574E+03 -0.1714498E+01  0.1932893E-04  0.2440065E-06
  0.1410000E+01  0.9375216E+03  0.1371537E+02  0.9300016E-06  0.1490116E-07 -0.4041280E-04  0.1035854E-03  0.4227280E-06  0.5587935E-08 -0.1600222E+03 -0.1778340E+01 -0.2667414E-04  0.9033829E-06
  0.1420000E+01  0.9389273E+03  0.1422040E+02  0.8395021E-07 -0.2607703E-07 -0.1129970E-03  0.7624552E-04 -0.1679004E-06 -0.3725290E-08 -0.1601917E+03 -0.1844399E+01 -0.1188735E-03 -0.3352761E-06
  0.1430000E+01  0.9404053E+03  0.1474333E+02  0.1667263E-06 -0.1490116E-07  0.2859356E-03  0.3716871E-03 -0.1667263E-06 -0.1117587E-07 -0.1603649E+03 -0.1912849E+01 -0.7927835E-04  0.7711351E-06
  0.1440000E+01  0.9419154E+03  0.1528462E+02  0.0000000E+00  0.3725290E-08  0.2705388E-03  0.3905110E-03 -0.2483527E-06 -0.3725290E-08 -0.1605357E+03 -0.1983739E+01  0.3307230E-04 -0.8214265E-06
  0.1450000E+01  0.9436313E+03  0.1584690E+02 -0.7399197E-06 -0.3352761E-07  0.3792499E-03  0.4783757E-03 -0.8221330E-07  0.3725290E-08 -0.1607288E+03 -0.2057412E+01  0.6737380E-04  0.4470348E-07
  0.1460000E+01  0.9454145E+03  0.1643065E+02 -0.3266008E-06  0.2235174E-07  0.7261152E-03  0.7095933E-03 -0.1633004E-06  0.7450581E-08 -0.1609604E+03 -0.2134210E+01  0.8267082E-04  0.1309440E-05
  0.1470000E+01  0.9471938E+03  0.1703543E+02  0.8109475E-07  0.3725290E-07  0.8587934E-03  0.7824153E-03  0.1621895E-06  0.1117587E-07 -0.1612191E+03 -0.2214055E+01 -0.5449567E-04 -0.4414469E-06
  0.1480000E+01  0.9490034E+03  0.1766192E+02 -0.8054682E-06  0.7450581E-08  0.6080479E-03  0.5941950E-03  0.8054682E-07 -0.7450581E-08 -0.1614906E+03 -0.2296929E+01  0.1150209E-03  0.2924353E-06
  0.1490000E+01  0.9509076E+03  0.1831314E+02  0.6400498E-06  0.5215406E-07  0.6030870E-03  0.5989857E-03  0.1600125E-06  0.0000000E+00 -0.1617964E+03 -0.2383335E+01 -0.4320337E-05  0.8139759E-06
  0.1500000E+01  0.9528132E+03  0.1898752E+02 -0.9536743E-06  0.3725290E-07  0.7073879E-03  0.6495677E-03  0.7947286E-07 -0.1117587E-07 -0.1621039E+03 -0.2472884E+01 -0.4188220E-04  0.1084059E-05
  0.1510000E+01  0.9548148E+03  0.1968787E+02 -0.6315724E-06 -0.4097819E-07  0.6597563E-03  0.6305389E-03 -0.1578931E-06  0.1117587E-07 -0.1624281E+03 -0.2565969E+01 -0.2103926E-04 -0.1806766E-06
  0.1520000E+01  0.9566100E+03  0.2041239E+02  0.0000000E+00  0.1117587E-07  0.7401172E-03  0.6735958E-03  0.1568543E-06  0.7450581E-08 -0.1627110E+03 -0.2662194E+01  0.4780136E-04  0.7972121E-06
  0.1530000E+01  0.9583762E+03  0.2116311E+02 -0.3116583E-06 -0.5215406E-07  0.7605241E-03  0.6759614E-03 -0.7791457E-07 -0.2235174E-07 -0.1629822E+03 -0.2761889E+01  0.3774961E-04 -0.1069158E-05
  0.1540000E+01  0.9601455E+03  0.2194190E+02  0.1548173E-06 -0.3725290E-08  0.7680485E-03  0.6449372E-03  0.3870431E-06  0.3725290E-08 -0.1632460E+03 -0.2865290E+01  0.8766528E-04  0.3935769E-05
  0.1550000E+01  0.9619360E+03  0.2274997E+02 -0.1538184E-06  0.0000000E+00  0.7508647E-03  0.6256700E-03 -0.1538184E-06  0.1490116E-07 -0.1635113E+03 -0.2972651E+01 -0.1618555E-03 -0.9797513E-06
  0.1560000E+01  0.9637554E+03  0.2358940E+02  0.6113297E-06 -0.1117587E-07  0.7384099E-03  0.6212629E-03  0.0000000E+00  0.3725290E-08 -0.1637802E+03 -0.3084239E+01 -0.4584973E-05 -0.5401671E-07
  0.1570000E+01  0.9656331E+03  0.2446028E+02 -0.6074358E-06  0.2235174E-07  0.4946046E-03  0.3928617E-03  0.0000000E+00 -0.7450581E-08 -0.1640569E+03 -0.3200056E+01  0.5687118E-04 -0.3166497E-07
  0.1580000E+01  0.9675665E+03  0.2536428E+02 -0.4526935E-06 -0.3725290E-07  0.3790554E-03  0.2978891E-03  0.0000000E+00  0.0000000E+00 -0.1643328E+03 -0.3320238E+01 -0.9091594E-04  0.1851469E-05
  0.1590000E+01  0.9693776E+03  0.2629741E+02  0.7497439E-06 -0.2235174E-07  0.1330046E-03  0.1099631E-03  0.1499488E-06  0.7450581E-08 -0.1645762E+03 -0.3444069E+01  0.5390659E-04 -0.2145767E-05
  0.1600000E+01  0.9711533E+03  0.2726107E+02 -0.4470348E-06  0.0000000E+00 -0.6988645E-04 -0.6822497E-04 -0.4470348E-06 -0.1490116E-07 -0.1648141E+03 -0.3571766E+01  0.7167459E-04 -0.5401671E-06
  0.1610000E+01  0.9729210E+03  0.2825797E+02  0.2961721E-06  0.0000000E+00 -0.2658145E-03 -0.2472624E-03  0.2961721E-06 -0.2607703E-07 -0.1650741E+03 -0.3704401E+01  0.2406399E-04  0.2011657E-06
  0.1620000E+01  0.9747244E+03  0.2929306E+02  0.1030204E-05  0.2235174E-07 -0.4547613E-03 -0.3810152E-03  0.1471720E-06 -0.1490116E-07 -0.1653534E+03 -0.3842715E+01 -0.7093688E-04 -0.1512468E-05
  0.1630000E+01  0.9765387E+03  0.3036640E+02  0.4388072E-06  0.5960464E-07 -0.5897569E-03 -0.4964843E-03  0.7313454E-07 -0.1490116E-07 -0.1656352E+03 -0.3986212E+01 -0.6699123E-04  0.6444752E-06
  0.1640000E+01  0.9784485E+03  0.3148140E+02  0.1017640E-05 -0.3725290E-07 -0.6974470E-03 -0.6127879E-03  0.7268859E-07  0.7450581E-08 -0.1659343E+03 -0.4135406E+01 -0.2507756E-04 -0.8530915E-06
  0.1650000E+01  0.9803569E+03  0.3263942E+02  0.2889922E-06  0.7450581E-08 -0.7076697E-03 -0.6781965E-03  0.0000000E+00  0.0000000E+00 -0.1662330E+03 -0.4290766E+01  0.6531224E-04  0.2950430E-05