VARIABLES="w (rad/s)"
"abs(F   1   1)" "angle(F   1   1)"
"abs(F   1   2)" "angle(F   1   2)"
"abs(F   1   3)" "angle(F   1   3)"
"abs(F   1   4)" "angle(F   1   4)"
"abs(F   1   5)" "angle(F   1   5)"
"abs(F   1   6)" "angle(F   1   6)"
Zone t="Diffraction force - beta =   0.000 deg",I=   286,F=POINT
  0.1500000E+00  0.1795680E+03 -0.1570750E+01  0.5497297E-06  0.2568626E+01  0.3062680E+02 -0.2985922E+01  0.1557866E-05 -0.2880374E+01  0.3109671E+02  0.1570830E+01  0.7012482E-06  0.1520307E+01
  0.1600000E+00  0.1910769E+03 -0.1570744E+01  0.4478412E-06  0.2367959E+01  0.3452332E+02 -0.2984370E+01  0.1736561E-05 -0.3964413E+00  0.3313079E+02  0.1570834E+01  0.7845610E-05  0.1564624E+01
  0.1700000E+00  0.2043146E+03 -0.1570737E+01  0.4331602E-06  0.6885649E-01  0.3869653E+02 -0.2983308E+01  0.2643696E-05  0.1016316E+00  0.3537141E+02  0.1570839E+01  0.1900194E-05  0.1588442E+01
  0.1800000E+00  0.2154490E+03 -0.1570729E+01  0.6115379E-06  0.1958090E+01  0.4305426E+02 -0.2981892E+01  0.1206994E-05 -0.3141592E+01  0.3729766E+02  0.1570844E+01  0.5165273E-06  0.1374815E+01
  0.1900000E+00  0.2293551E+03 -0.1570722E+01  0.8134450E-06 -0.1423718E+01  0.4762691E+02 -0.2980851E+01  0.5339941E-05  0.3096930E+01  0.3969390E+02  0.1570850E+01  0.2171156E-04 -0.1563590E+01
  0.2000000E+00  0.2405549E+03 -0.1570714E+01  0.1660193E-05  0.2066561E+01  0.5249253E+02 -0.2979692E+01  0.1179547E-05  0.2683595E+01  0.4167973E+02  0.1570856E+01  0.1573436E-05 -0.1348789E+01
  0.2100000E+00  0.2525076E+03 -0.1570705E+01  0.6664002E-06 -0.2034444E+01  0.5764629E+02 -0.2978982E+01  0.1569157E-05  0.3065549E+01  0.4374735E+02  0.1570862E+01  0.1089278E-04  0.1573190E+01
  0.2200000E+00  0.2646196E+03 -0.1570696E+01  0.1521105E-05  0.1772995E+01  0.6309497E+02 -0.2978447E+01  0.5816418E-05  0.3833608E+00  0.4586583E+02  0.1570868E+01  0.2416973E-04  0.1568793E+01
  0.2300000E+00  0.2766148E+03 -0.1570686E+01  0.1156641E-05  0.6666929E+00  0.6854279E+02 -0.2977355E+01  0.4019697E-05  0.2917295E+01  0.4788943E+02  0.1570875E+01  0.5215706E-05 -0.1560082E+01
  0.2400000E+00  0.2891201E+03 -0.1570677E+01  0.3372044E-05  0.4577188E+00  0.7424435E+02 -0.2976438E+01  0.3855947E-05 -0.2970726E+01  0.5000305E+02  0.1570883E+01  0.3271017E-04 -0.1582185E+01
  0.2500000E+00  0.3008087E+03 -0.1570666E+01  0.1339448E-05  0.2777614E+01  0.8018766E+02 -0.2975518E+01  0.9001399E-05  0.5963071E-01  0.5212173E+02  0.1570890E+01  0.4033263E-05 -0.1681862E+01
  0.2600000E+00  0.3126997E+03 -0.1570655E+01  0.2004746E-06  0.2303612E+01  0.8637489E+02 -0.2974721E+01  0.4658419E-05  0.2935414E+01  0.5421392E+02  0.1570898E+01  0.2555556E-04 -0.1568464E+01
  0.2700000E+00  0.3248190E+03 -0.1570643E+01  0.1687190E-05 -0.2193099E+01  0.9283025E+02 -0.2974033E+01  0.5594588E-05  0.2475626E+00  0.5630255E+02  0.1570906E+01  0.1469690E-04  0.1546460E+01
  0.2800000E+00  0.3372554E+03 -0.1570632E+01  0.3668713E-05  0.3100965E+01  0.9955772E+02 -0.2973439E+01  0.2893282E-05  0.2539305E+01  0.5846565E+02  0.1570915E+01  0.2444199E-05 -0.1589087E+01
  0.2900000E+00  0.3496349E+03 -0.1570619E+01  0.2652951E-05  0.4410384E+00  0.1065547E+03 -0.2972945E+01  0.2284499E-05  0.1701624E+01  0.6063679E+02  0.1570924E+01  0.4472055E-04 -0.1580626E+01
  0.3000000E+00  0.3620172E+03 -0.1570606E+01  0.2706110E-05 -0.2942037E+01  0.1136237E+03 -0.2972217E+01  0.5885865E-05 -0.7094672E-01  0.6275952E+02  0.1570933E+01  0.4675095E-05 -0.1465419E+01
  0.3100000E+00  0.3744222E+03 -0.1570593E+01  0.1892623E-05  0.1697104E+01  0.1208110E+03 -0.2971368E+01  0.2242315E-05  0.1160669E+01  0.6483965E+02  0.1570943E+01  0.2655429E-04 -0.1576408E+01
  0.3200000E+00  0.3870681E+03 -0.1570579E+01  0.1864790E-05 -0.3093629E+01  0.1282415E+03 -0.2970577E+01  0.3749175E-05  0.2209528E+01  0.6700526E+02  0.1570953E+01  0.8502938E-05  0.1495368E+01
  0.3300000E+00  0.3995750E+03 -0.1570565E+01  0.1401026E-05 -0.2127339E-01  0.1359039E+03 -0.2969822E+01  0.5948009E-05 -0.1610301E+00  0.6921334E+02  0.1570963E+01  0.2455393E-05 -0.1668050E+01
  0.3400000E+00  0.4122010E+03 -0.1570550E+01  0.2331639E-05  0.9579761E+00  0.1437854E+03 -0.2969100E+01  0.8806271E-05 -0.3084029E+01  0.7139599E+02  0.1570974E+01  0.1195553E-04  0.1646899E+01
  0.3500000E+00  0.4247145E+03 -0.1570534E+01  0.2009172E-05 -0.1934775E+01  0.1519261E+03 -0.2968436E+01  0.6867220E-05 -0.3080798E+01  0.7354784E+02  0.1570985E+01  0.3314964E-05  0.1792878E+01
  0.3600000E+00  0.4368693E+03 -0.1570518E+01  0.2299612E-05 -0.3076749E+01  0.1603378E+03 -0.2967836E+01  0.2265925E-04 -0.2893928E-01  0.7564503E+02  0.1570997E+01  0.1126922E-04 -0.1544348E+01
  0.3700000E+00  0.4490420E+03 -0.1570501E+01  0.8601469E-06  0.1815775E+01  0.1689930E+03 -0.2967272E+01  0.1287681E-04 -0.1851640E-01  0.7779395E+02  0.1571009E+01  0.4477815E-04  0.1568134E+01
  0.3800000E+00  0.4611329E+03 -0.1570484E+01  0.3242021E-05 -0.2814028E+01  0.1778942E+03 -0.2966758E+01  0.1689708E-04 -0.1970497E+00  0.7994225E+02  0.1571021E+01  0.6672980E-04 -0.1579282E+01
  0.3900000E+00  0.4733926E+03 -0.1570466E+01  0.3140577E-05  0.1732825E+01  0.1870676E+03 -0.2966297E+01  0.2241166E-04 -0.3136274E+01  0.8211006E+02  0.1571034E+01  0.5762557E-04  0.1580623E+01
  0.4000000E+00  0.4855735E+03 -0.1570448E+01  0.1788388E-05  0.4114563E+00  0.1961296E+03 -0.2965543E+01  0.1772807E-04 -0.2933317E+01  0.8420278E+02  0.1571048E+01  0.8666918E-05  0.1617234E+01
  0.4100000E+00  0.4977970E+03 -0.1570429E+01  0.6058014E-05  0.2282738E+00  0.2054128E+03 -0.2964811E+01  0.3628548E-05 -0.8318763E+00  0.8628669E+02  0.1571061E+01  0.2621130E-04  0.1574207E+01
  0.4200000E+00  0.5103280E+03 -0.1570409E+01  0.1165206E-04  0.2375346E+00  0.2149127E+03 -0.2964095E+01  0.7068870E-05 -0.2806509E+01  0.8844543E+02  0.1571075E+01  0.6291273E-05  0.1540000E+01
  0.4300000E+00  0.5230815E+03 -0.1570389E+01  0.6827269E-05 -0.2110933E+00  0.2246523E+03 -0.2963410E+01  0.4772096E-05  0.4804058E+00  0.9069178E+02  0.1571090E+01  0.1655900E-04 -0.1494231E+01
  0.4400000E+00  0.5360994E+03 -0.1570368E+01  0.2529513E-05  0.6010736E+00  0.2346146E+03 -0.2962744E+01  0.8413550E-06 -0.4002407E+00  0.9297753E+02  0.1571105E+01  0.3213554E-04  0.1593983E+01
  0.4500000E+00  0.5489146E+03 -0.1570347E+01  0.4372317E-05 -0.2659654E+01  0.2447945E+03 -0.2962083E+01  0.8013888E-05 -0.3059687E+01  0.9521008E+02  0.1571120E+01  0.7422932E-05  0.1594888E+01
  0.4600000E+00  0.5617691E+03 -0.1570325E+01  0.4795489E-05  0.1006927E+01  0.2552172E+03 -0.2961449E+01  0.2133522E-05 -0.2065684E+01  0.9744106E+02  0.1571136E+01  0.5744219E-05  0.1348469E+01
  0.4700000E+00  0.5746067E+03 -0.1570302E+01  0.5673724E-05  0.3317170E+00  0.2659098E+03 -0.2960854E+01  0.3355906E-05  0.1915015E+01  0.9965717E+02  0.1571153E+01  0.3166534E-04 -0.1539733E+01
  0.4800000E+00  0.5874383E+03 -0.1570279E+01  0.5495277E-05  0.6512515E-01  0.2768611E+03 -0.2960273E+01  0.8757674E-05 -0.1125362E+00  0.1018791E+03  0.1571170E+01  0.4229413E-04 -0.1555998E+01
  0.4900000E+00  0.6004028E+03 -0.1570255E+01  0.2272024E-05  0.1492012E+01  0.2880213E+03 -0.2959721E+01  0.2334017E-04 -0.1836223E+00  0.1041474E+03  0.1571187E+01  0.2548695E-04 -0.1549162E+01
  0.5000000E+00  0.6133483E+03 -0.1570230E+01  0.2563000E-05  0.1570796E+01  0.2994163E+03 -0.2959197E+01  0.1640322E-04 -0.3103429E+01  0.1064180E+03  0.1571205E+01  0.1195311E-04  0.1590744E+01
  0.5100000E+00  0.6262043E+03 -0.1570204E+01  0.1166943E-04 -0.2920154E+01  0.3111041E+03 -0.2958715E+01  0.4553113E-04 -0.1690225E+00  0.1086783E+03  0.1571224E+01  0.1355695E-04  0.1409623E+01
  0.5200000E+00  0.6391145E+03 -0.1570178E+01  0.1480549E-05 -0.2441700E+01  0.3227291E+03 -0.2958085E+01  0.7093015E-05  0.4201656E-02  0.1109064E+03  0.1571243E+01  0.8270695E-04  0.1582327E+01
  0.5300000E+00  0.6521328E+03 -0.1570151E+01  0.7803430E-05 -0.6007138E+00  0.3344167E+03 -0.2957386E+01  0.1248472E-04 -0.1533753E+00  0.1131144E+03  0.1571262E+01  0.3965176E-04 -0.1523428E+01
  0.5400000E+00  0.6651987E+03 -0.1570123E+01  0.8613851E-05 -0.2817654E+01  0.3463661E+03 -0.2956719E+01  0.1226296E-04  0.3394274E+00  0.1153175E+03  0.1571283E+01  0.1448420E-04 -0.1459457E+01
  0.5500000E+00  0.6782876E+03 -0.1570095E+01  0.3037499E-05  0.2782997E+00  0.3584883E+03 -0.2956036E+01  0.6739873E-05 -0.2840818E+01  0.1175521E+03  0.1571303E+01  0.4649167E-04 -0.1520134E+01
  0.5600000E+00  0.6913884E+03 -0.1570065E+01  0.9260421E-05 -0.1746722E+00  0.3708261E+03 -0.2955361E+01  0.1250235E-04  0.2100587E+01  0.1198513E+03  0.1571325E+01  0.1742424E-04  0.1419707E+01
  0.5700000E+00  0.7046119E+03 -0.1570035E+01  0.7935480E-05  0.4508222E-01  0.3833996E+03 -0.2954699E+01  0.1400608E-04 -0.3069468E+00  0.1221994E+03  0.1571346E+01  0.1955053E-04  0.1566223E+01
  0.5800000E+00  0.7177031E+03 -0.1570004E+01  0.7725875E-05  0.6265274E+00  0.3961754E+03 -0.2954036E+01  0.2178017E-05 -0.2850136E+01  0.1245245E+03  0.1571369E+01  0.6700787E-04  0.1551671E+01
  0.5900000E+00  0.7307161E+03 -0.1569972E+01  0.1295740E-04  0.5983632E-01  0.4091938E+03 -0.2953385E+01  0.3111364E-04 -0.9578540E-03  0.1268170E+03  0.1571392E+01  0.3776931E-04 -0.1616578E+01
  0.6000000E+00  0.7437585E+03 -0.1569939E+01  0.9456123E-05  0.5285282E+00  0.4224320E+03 -0.2952735E+01  0.1236865E-04  0.1207686E+00  0.1291101E+03  0.1571416E+01  0.3909997E-04  0.1625703E+01
  0.6100000E+00  0.7568651E+03 -0.1569905E+01  0.2056300E-04  0.1074562E+00  0.4359055E+03 -0.2952091E+01  0.5118739E-04 -0.3036015E+01  0.1314147E+03  0.1571441E+01  0.2004223E-04 -0.1657148E+01
  0.6200000E+00  0.7698997E+03 -0.1569870E+01  0.2668931E-05 -0.1984486E+01  0.4496295E+03 -0.2951455E+01  0.3419442E-04 -0.2878857E+01  0.1336827E+03  0.1571466E+01  0.9102792E-05  0.1791951E+01
  0.6300000E+00  0.7829537E+03 -0.1569834E+01  0.9286473E-05  0.2767046E+01  0.4636619E+03 -0.2950831E+01  0.2827077E-04  0.3105743E+01  0.1359721E+03  0.1571492E+01  0.3087728E-04  0.1582379E+01
  0.6400000E+00  0.7962695E+03 -0.1569798E+01  0.3803972E-05  0.6184280E+00  0.4778139E+03 -0.2950201E+01  0.1928800E-04  0.6682255E+00  0.1383268E+03  0.1571518E+01  0.3751530E-04  0.1535040E+01
  0.6500000E+00  0.8096603E+03 -0.1569760E+01  0.8228464E-05 -0.2713346E+00  0.4922629E+03 -0.2949643E+01  0.3799416E-04  0.2847131E+01  0.1406932E+03  0.1571545E+01  0.1725783E-04 -0.1486078E+01
  0.6600000E+00  0.8231414E+03 -0.1569721E+01  0.1099896E-04  0.7594064E-01  0.5069184E+03 -0.2949072E+01  0.5066395E-05 -0.2988049E+01  0.1430781E+03  0.1571573E+01  0.5622482E-04  0.1671678E+01
  0.6700000E+00  0.8367690E+03 -0.1569682E+01  0.7222008E-05  0.2420434E+01  0.5219688E+03 -0.2948560E+01  0.3742417E-05  0.1666503E+01  0.1454820E+03  0.1571602E+01  0.2287151E-04  0.1536911E+01
  0.6799999E+00  0.8506178E+03 -0.1569641E+01  0.2489877E-05 -0.7345945E+00  0.5367333E+03 -0.2947894E+01  0.2373732E-04 -0.2892960E+01  0.1478745E+03  0.1571631E+01  0.6650845E-04  0.1546597E+01
  0.6899999E+00  0.8645233E+03 -0.1569600E+01  0.1401330E-04 -0.3111814E+01  0.5515998E+03 -0.2947210E+01  0.2462258E-04  0.3019039E+01  0.1502516E+03  0.1571662E+01  0.1917056E-04 -0.1185094E+01
  0.7000000E+00  0.8785059E+03 -0.1569558E+01  0.1244010E-04  0.3217506E+00  0.5663161E+03 -0.2946395E+01  0.1991232E-04  0.2696650E+00  0.1526327E+03  0.1571693E+01  0.4328037E-04 -0.1494288E+01
  0.7099999E+00  0.8925539E+03 -0.1569514E+01  0.5326201E-05 -0.1660443E+01  0.5815535E+03 -0.2945693E+01  0.8189134E-05  0.1424117E+00  0.1550162E+03  0.1571725E+01  0.9304293E-05 -0.1452003E+01
  0.7200000E+00  0.9066882E+03 -0.1569469E+01  0.1369831E-04 -0.2365425E+01  0.5969865E+03 -0.2944985E+01  0.4959831E-04  0.2607185E+00  0.1574531E+03  0.1571757E+01  0.5137438E-04  0.1682991E+01
  0.7300000E+00  0.9208964E+03 -0.1569423E+01  0.8081871E-05 -0.6966268E+00  0.6126595E+03 -0.2944286E+01  0.2060468E-04  0.3391322E+00  0.1599393E+03  0.1571791E+01  0.3330745E-04 -0.1537684E+01
  0.7400000E+00  0.9352324E+03 -0.1569376E+01  0.4041265E-05 -0.2492192E+01  0.6288890E+03 -0.2943699E+01  0.5332761E-04 -0.1934499E+00  0.1624809E+03  0.1571825E+01  0.7116088E-04 -0.1626945E+01
  0.7500000E+00  0.9497170E+03 -0.1569328E+01  0.1160011E-04  0.8800054E+00  0.6449382E+03 -0.2942976E+01  0.3298837E-04  0.1404917E+00  0.1650511E+03  0.1571860E+01  0.1353432E-04 -0.1473757E+01
  0.7600000E+00  0.9640553E+03 -0.1569278E+01  0.4291948E-05 -0.1403365E+01  0.6612049E+03 -0.2942250E+01  0.3824957E-04  0.1336328E+00  0.1675814E+03  0.1571897E+01  0.5030040E-04 -0.1601611E+01
  0.7700000E+00  0.9782744E+03 -0.1569227E+01  0.7936375E-05 -0.1875921E+01  0.6776948E+03 -0.2941520E+01  0.2053248E-04 -0.2795054E+01  0.1700820E+03  0.1571934E+01  0.8004962E-04 -0.1543243E+01
  0.7800000E+00  0.9924594E+03 -0.1569174E+01  0.5225189E-05  0.5658543E+00  0.6944077E+03 -0.2940787E+01  0.5155565E-04 -0.2769498E+00  0.1725764E+03  0.1571973E+01  0.5159192E-04  0.1620495E+01
  0.7900000E+00  0.1006690E+04 -0.1569119E+01  0.1005465E-04 -0.2962800E+01  0.7113514E+03 -0.2940048E+01  0.5859419E-04 -0.1198127E+00  0.1750792E+03  0.1572013E+01  0.4564293E-04  0.1596917E+01
  0.8000000E+00  0.1021046E+04 -0.1569063E+01  0.3948006E-04  0.2720782E+00  0.7285344E+03 -0.2939304E+01  0.5452950E-04 -0.4318976E-01  0.1775905E+03  0.1572053E+01  0.4577637E-04  0.1570796E+01
  0.8099999E+00  0.1035380E+04 -0.1569006E+01  0.1585080E-04  0.2772259E+01  0.7459652E+03 -0.2938553E+01  0.8675754E-05 -0.1543312E+01  0.1800806E+03  0.1572095E+01  0.1248731E-04 -0.1575570E+01
  0.8200001E+00  0.1049800E+04 -0.1568948E+01  0.1554025E-04 -0.1048796E+01  0.7637017E+03 -0.2937778E+01  0.5024940E-04  0.2688555E+01  0.1826159E+03  0.1572137E+01  0.2845615E-05  0.8076167E+00
  0.8299999E+00  0.1064316E+04 -0.1568888E+01  0.8344012E-05 -0.4508688E+00  0.7816125E+03 -0.2937042E+01  0.4315065E-04 -0.1044793E+00  0.1851853E+03  0.1572181E+01  0.1463825E-04 -0.1640073E+01
  0.8400000E+00  0.1078851E+04 -0.1568826E+01  0.1632819E-04 -0.2845241E+01  0.7996924E+03 -0.2936354E+01  0.3294752E-04  0.4571752E+00  0.1877696E+03  0.1572226E+01  0.2278933E-04  0.1487003E+01
  0.8500000E+00  0.1093458E+04 -0.1568763E+01  0.1057424E-04 -0.1638489E+01  0.8180457E+03 -0.2935670E+01  0.6818982E-04 -0.7866970E-02  0.1903713E+03  0.1572272E+01  0.9899025E-04 -0.1503307E+01
  0.8600000E+00  0.1108128E+04 -0.1568698E+01  0.1455135E-04  0.2181522E+01  0.8366999E+03 -0.2934992E+01  0.7105399E-04  0.1216383E-01  0.1929846E+03  0.1572320E+01  0.5200466E-04 -0.1481278E+01
  0.8700000E+00  0.1122892E+04 -0.1568631E+01  0.1243168E-04 -0.1933495E+01  0.8556895E+03 -0.2934322E+01  0.3593424E-04  0.6275768E+00  0.1956182E+03  0.1572368E+01  0.5710440E-04  0.1463078E+01
  0.8800000E+00  0.1137623E+04 -0.1568563E+01  0.2633419E-05 -0.1480136E+01  0.8742816E+03 -0.2933578E+01  0.1056457E-03  0.3119305E+01  0.1982058E+03  0.1572418E+01  0.2039881E-05  0.4375098E+00
  0.8900000E+00  0.1152501E+04 -0.1568493E+01  0.2676375E-04  0.3025525E+01  0.8927692E+03 -0.2932790E+01  0.2592192E-04  0.2545937E+01  0.2007881E+03  0.1572469E+01  0.3591778E-04  0.1552541E+01
  0.9000000E+00  0.1167434E+04 -0.1568422E+01  0.1948707E-04 -0.2935199E+01  0.9114631E+03 -0.2931993E+01  0.2649029E-04  0.2530498E+01  0.2033726E+03  0.1572522E+01  0.1124148E-03  0.1568145E+01
  0.9100000E+00  0.1182461E+04 -0.1568348E+01  0.2316037E-04 -0.2337432E+00  0.9303882E+03 -0.2931198E+01  0.1435721E-04  0.3056383E+01  0.2059668E+03  0.1572576E+01  0.9891419E-04 -0.1573207E+01
  0.9200000E+00  0.1197588E+04 -0.1568273E+01  0.2019956E-04 -0.2020252E+00  0.9494136E+03 -0.2930371E+01  0.3133011E-04  0.3596613E+00  0.2085727E+03  0.1572631E+01  0.6604695E-04 -0.1615031E+01
  0.9299999E+00  0.1212882E+04 -0.1568196E+01  0.1840664E-04  0.2654000E+00  0.9687910E+03 -0.2929573E+01  0.3733231E-04 -0.3055269E+01  0.2112511E+03  0.1572688E+01  0.3623655E-04 -0.1403890E+01
  0.9399999E+00  0.1228239E+04 -0.1568116E+01  0.9426583E-05  0.2976444E+01  0.9882913E+03 -0.2928749E+01  0.5326201E-05 -0.5538544E+00  0.2139718E+03  0.1572746E+01  0.7228813E-04 -0.1616987E+01
  0.9500000E+00  0.1243741E+04 -0.1568034E+01  0.3107186E-04  0.2915225E+01  0.1007967E+04 -0.2927911E+01  0.1159965E-04  0.2316216E+01  0.2167498E+03  0.1572805E+01  0.7160195E-04  0.1632436E+01
  0.9599999E+00  0.1259375E+04 -0.1567951E+01  0.2249844E-04  0.2516108E+01  0.1027868E+04 -0.2927064E+01  0.4785812E-04 -0.2902051E+01  0.2195623E+03  0.1572867E+01  0.4594464E-04 -0.1708749E+01
  0.9700000E+00  0.1275391E+04 -0.1567865E+01  0.4334160E-04  0.2176248E+00  0.1047853E+04 -0.2926193E+01  0.7721710E-04  0.7339732E-01  0.2224260E+03  0.1572930E+01  0.4735724E-04  0.1563245E+01
  0.9800000E+00  0.1291134E+04 -0.1567776E+01  0.7502613E-05  0.1877473E+01  0.1068352E+04 -0.2925370E+01  0.3177884E-04 -0.1392445E+00  0.2252360E+03  0.1572994E+01  0.9357229E-04  0.1505139E+01
  0.9900000E+00  0.1306951E+04 -0.1567685E+01  0.1483246E-04 -0.3916999E+00  0.1088886E+04 -0.2924496E+01  0.2036918E-04 -0.2453598E+01  0.2280410E+03  0.1573061E+01  0.4542066E-04 -0.1561610E+01
  0.1000000E+01  0.1322957E+04 -0.1567591E+01  0.1933847E-04  0.5242107E-01  0.1109621E+04 -0.2923607E+01  0.5800436E-04  0.2849742E+01  0.2308713E+03  0.1573130E+01  0.7877382E-04 -0.1601067E+01
  0.1010000E+01  0.1339190E+04 -0.1567495E+01  0.8383160E-04  0.2559896E-01  0.1130780E+04 -0.2922747E+01  0.2021786E-04  0.1011416E+01  0.2337329E+03  0.1573201E+01  0.8646473E-04  0.1600443E+01
  0.1020000E+01  0.1355725E+04 -0.1567396E+01  0.2677523E-04  0.7352792E-01  0.1151894E+04 -0.2921810E+01  0.9795176E-05 -0.3077656E+01  0.2366364E+03  0.1573274E+01  0.8785820E-04  0.1544335E+01
  0.1030000E+01  0.1372165E+04 -0.1567295E+01  0.1710061E-04  0.9537883E+00  0.1173335E+04 -0.2920879E+01  0.7016513E-04 -0.2889609E+01  0.2395061E+03  0.1573349E+01  0.1030896E-03  0.1578891E+01
  0.1040000E+01  0.1388687E+04 -0.1567191E+01  0.3182799E-04 -0.8625164E-01  0.1195013E+04 -0.2919922E+01  0.1730640E-04  0.4913755E+00  0.2423856E+03  0.1573425E+01  0.1125692E-04  0.1666250E+01
  0.1050000E+01  0.1405373E+04 -0.1567085E+01  0.3842466E-04  0.4372831E+00  0.1217013E+04 -0.2918918E+01  0.1081221E-03 -0.2947711E+01  0.2453295E+03  0.1573503E+01  0.5425360E-04 -0.1509234E+01
  0.1060000E+01  0.1422238E+04 -0.1566976E+01  0.1993051E-04  0.2943213E+00  0.1239184E+04 -0.2917941E+01  0.1766240E-04 -0.3334896E+00  0.2483217E+03  0.1573583E+01  0.6842211E-04 -0.1499303E+01
  0.1070000E+01  0.1439181E+04 -0.1566864E+01  0.2194617E-04  0.3108995E+01  0.1261335E+04 -0.2917032E+01  0.9159580E-04 -0.1065970E+00  0.2513376E+03  0.1573665E+01  0.5937521E-04  0.1606943E+01
  0.1080000E+01  0.1456182E+04 -0.1566749E+01  0.4998623E-05 -0.1427213E+01  0.1283881E+04 -0.2916142E+01  0.7970193E-04  0.2651855E+01  0.2543710E+03  0.1573750E+01  0.3807623E-04  0.1539483E+01
  0.1090000E+01  0.1473271E+04 -0.1566630E+01  0.6062587E-04 -0.1341108E+00  0.1306722E+04 -0.2915246E+01  0.8737260E-04  0.5050347E-01  0.2574246E+03  0.1573838E+01  0.6384169E-05  0.1042386E+01
  0.1100000E+01  0.1490499E+04 -0.1566509E+01  0.2015201E-04  0.1104503E+01  0.1329917E+04 -0.2914345E+01  0.7499463E-04 -0.2602877E+01  0.2605049E+03  0.1573928E+01  0.6646744E-04  0.1470191E+01
  0.1110000E+01  0.1507810E+04 -0.1566384E+01  0.2006261E-04 -0.7938013E+00  0.1353463E+04 -0.2913429E+01  0.5962628E-04 -0.2270206E+01  0.2636029E+03  0.1574020E+01  0.8324608E-04 -0.1473265E+01
  0.1120000E+01  0.1525265E+04 -0.1566256E+01  0.2252590E-04 -0.1762484E+01  0.1376307E+04 -0.2912495E+01  0.1780579E-03 -0.1250193E+00  0.2666745E+03  0.1574115E+01  0.8389565E-04  0.1577901E+01
  0.1130000E+01  0.1543199E+04 -0.1566127E+01  0.2236692E-04  0.2197242E+01  0.1398950E+04 -0.2911574E+01  0.1786983E-03  0.2885126E+01  0.2697793E+03  0.1574211E+01  0.5942951E-04  0.1616948E+01
  0.1140000E+01  0.1560834E+04 -0.1565993E+01  0.2701774E-04  0.2988775E+01  0.1421689E+04 -0.2910614E+01  0.5073333E-04 -0.2473182E+01  0.2728410E+03  0.1574310E+01  0.1261925E-03 -0.1558515E+01
  0.1150000E+01  0.1578489E+04 -0.1565856E+01  0.7868039E-05 -0.2221873E+01  0.1444612E+04 -0.2909637E+01  0.2009469E-03  0.3034457E+01  0.2758992E+03  0.1574411E+01  0.7917015E-04 -0.1590372E+01
  0.1160000E+01  0.1596247E+04 -0.1565715E+01  0.3290716E-04 -0.3123479E+01  0.1467706E+04 -0.2908644E+01  0.1516296E-03  0.3016360E+01  0.2789667E+03  0.1574516E+01  0.1597416E-04  0.1283271E+01
  0.1170000E+01  0.1614144E+04 -0.1565570E+01  0.2564663E-04  0.2694576E+01  0.1491110E+04 -0.2907661E+01  0.4913463E-04 -0.1026863E+00  0.2820519E+03  0.1574624E+01  0.7208581E-04 -0.1705151E+01
  0.1180000E+01  0.1632376E+04 -0.1565421E+01  0.8821487E-05 -0.1901094E+01  0.1514574E+04 -0.2906646E+01  0.1363164E-03  0.2858533E+01  0.2852568E+03  0.1574734E+01  0.1051921E-04 -0.7593520E+00
  0.1190000E+01  0.1650771E+04 -0.1565268E+01  0.1436670E-04  0.9712868E+00  0.1538183E+04 -0.2905612E+01  0.3121059E-04  0.2072886E+01  0.2885137E+03  0.1574847E+01  0.4008909E-04  0.1460550E+01
  0.1200000E+01  0.1669353E+04 -0.1565111E+01  0.2081901E-04 -0.2310907E+00  0.1561956E+04 -0.2904563E+01  0.1024443E-03  0.2435675E+00  0.2918352E+03  0.1574964E+01  0.8648394E-04  0.1693784E+01
  0.1210000E+01  0.1688115E+04 -0.1564950E+01  0.7271768E-04 -0.8196720E-03  0.1585961E+04 -0.2903507E+01  0.2372408E-04 -0.2180750E+01  0.2952095E+03  0.1575083E+01  0.9270656E-04  0.1619679E+01
  0.1220000E+01  0.1707079E+04 -0.1564784E+01  0.3582333E-04  0.2385219E+00  0.1610140E+04 -0.2902435E+01  0.5572240E-04  0.8795162E+00  0.2986231E+03  0.1575206E+01  0.3843054E-04  0.1912412E+01
  0.1230000E+01  0.1725832E+04 -0.1564613E+01  0.2084936E-04  0.4431901E+00  0.1634532E+04 -0.2901349E+01  0.1263528E-04 -0.2172537E+01  0.3019978E+03  0.1575333E+01  0.5680335E-04 -0.1568698E+01
  0.1240000E+01  0.1744679E+04 -0.1564436E+01  0.7054783E-05 -0.1809628E+01  0.1659007E+04 -0.2900228E+01  0.2263857E-03  0.2978955E+01  0.3053819E+03  0.1575464E+01  0.3188737E-04 -0.1484706E+01
  0.1250000E+01  0.1763565E+04 -0.1564254E+01  0.2898337E-04  0.4397331E+00  0.1683753E+04 -0.2899100E+01  0.7890953E-04 -0.3032416E+01  0.3087537E+03  0.1575599E+01  0.6112991E-04  0.1769052E+01
  0.1260000E+01  0.1782569E+04 -0.1564067E+01  0.2749738E-04 -0.3065652E+01  0.1708703E+04 -0.2897953E+01  0.1254323E-03 -0.3016648E+01  0.3121441E+03  0.1575739E+01  0.5879049E-04 -0.1700936E+01
  0.1270000E+01  0.1801781E+04 -0.1563873E+01  0.2960161E-04  0.6741120E+00  0.1733761E+04 -0.2896769E+01  0.5995781E-04 -0.1321689E+01  0.3155716E+03  0.1575882E+01  0.1051016E-03 -0.1713054E+01
  0.1280000E+01  0.1821073E+04 -0.1563674E+01  0.5172708E-04  0.2449215E+01  0.1759117E+04 -0.2895574E+01  0.2086182E-04  0.1969873E+01  0.3190170E+03  0.1576030E+01  0.1354302E-04 -0.1650100E+01
  0.1290000E+01  0.1840447E+04 -0.1563469E+01  0.3039837E-05  0.2060754E+01  0.1784727E+04 -0.2894360E+01  0.4654414E-04  0.2909815E+01  0.3224600E+03  0.1576182E+01  0.1830212E-04  0.1590338E+01
  0.1300000E+01  0.1859921E+04 -0.1563260E+01  0.3092924E-04 -0.2427114E+01  0.1810400E+04 -0.2893095E+01  0.8671719E-04  0.9724069E-01  0.3258991E+03  0.1576338E+01  0.1239527E-03  0.1691304E+01
  0.1310000E+01  0.1879471E+04 -0.1563045E+01  0.4897257E-04 -0.1823573E+00  0.1836676E+04 -0.2891832E+01  0.2181259E-03  0.3002104E+01  0.3293540E+03  0.1576497E+01  0.7163169E-04 -0.1509182E+01
  0.1320000E+01  0.1899340E+04 -0.1562825E+01  0.5512060E-04 -0.5508049E+00  0.1862894E+04 -0.2890438E+01  0.1165331E-03  0.5632484E-01  0.3329320E+03  0.1576660E+01  0.2096832E-04 -0.1707668E+01
  0.1330000E+01  0.1919413E+04 -0.1562598E+01  0.6883924E-04  0.2014694E+01  0.1889412E+04 -0.2889171E+01  0.1152568E-03 -0.2193633E+01  0.3365532E+03  0.1576829E+01  0.6211765E-04  0.1767815E+01
  0.1340000E+01  0.1939575E+04 -0.1562364E+01  0.3344373E-04  0.9897140E+00  0.1915976E+04 -0.2887971E+01  0.1034923E-03  0.6250846E+00  0.3401945E+03  0.1577003E+01  0.4521322E-04  0.1411933E+01
  0.1350000E+01  0.1959902E+04 -0.1562124E+01  0.4921947E-04  0.5406272E+00  0.1943002E+04 -0.2886782E+01  0.7057877E-04 -0.1394810E-01  0.3438736E+03  0.1577182E+01  0.3381587E-04  0.1357672E+01
  0.1360000E+01  0.1980357E+04 -0.1561875E+01  0.7287542E-04  0.2346363E+01  0.1970108E+04 -0.2885539E+01  0.3608545E-04 -0.1610449E+01  0.3475789E+03  0.1577367E+01  0.2166760E-04 -0.4057948E+00
  0.1370000E+01  0.2000918E+04 -0.1561620E+01  0.2409090E-04  0.2468397E+01  0.1997752E+04 -0.2884303E+01  0.3022218E-04 -0.7813016E+00  0.3513075E+03  0.1577558E+01  0.2580385E-04 -0.1251237E+01
  0.1380000E+01  0.2021708E+04 -0.1561358E+01  0.5307491E-05 -0.1001483E+01  0.2025632E+04 -0.2883010E+01  0.7826111E-04 -0.1823279E+01  0.3550817E+03  0.1577755E+01  0.5820359E-04  0.1626124E+01
  0.1390000E+01  0.2043034E+04 -0.1561091E+01  0.2576024E-04 -0.1710076E+01  0.2053636E+04 -0.2881687E+01  0.1009335E-03  0.6222402E+00  0.3589292E+03  0.1577955E+01  0.5329996E-04  0.1611066E+01
  0.1400000E+01  0.2064415E+04 -0.1560818E+01  0.1567455E-04 -0.6069877E+00  0.2079735E+04 -0.2880521E+01  0.3291502E-04  0.3432980E+00  0.3626774E+03  0.1578159E+01  0.5276169E-04  0.1784809E+01
  0.1410000E+01  0.2085957E+04 -0.1560539E+01  0.5266815E-04 -0.2624271E+01  0.2105950E+04 -0.2879303E+01  0.8101464E-04 -0.2781444E+01  0.3664440E+03  0.1578368E+01  0.8670184E-04  0.1965984E+01
  0.1420000E+01  0.2107769E+04 -0.1560254E+01  0.5048682E-04 -0.1375948E+01  0.2132374E+04 -0.2878066E+01  0.8289213E-04  0.3867154E+00  0.3702479E+03  0.1578581E+01  0.1362748E-04 -0.2004121E+01
  0.1430000E+01  0.2129895E+04 -0.1559961E+01  0.7455490E-04  0.2652200E+01  0.2158912E+04 -0.2876798E+01  0.1060183E-03 -0.7412564E+00  0.3740862E+03  0.1578801E+01  0.1051318E-03 -0.1504982E+01
  0.1440000E+01  0.2152251E+04 -0.1559660E+01  0.2821869E-04  0.1261737E+01  0.2185641E+04 -0.2875517E+01  0.2836565E-03  0.3013537E+01  0.3779455E+03  0.1579027E+01  0.6105265E-04  0.1469088E+01
  0.1450000E+01  0.2175246E+04 -0.1559352E+01  0.8088737E-05 -0.2907337E+01  0.2212911E+04 -0.2874274E+01  0.5446946E-04 -0.1127459E+01  0.3818840E+03  0.1579260E+01  0.1012570E-04 -0.5810639E+00
  0.1460000E+01  0.2198568E+04 -0.1559036E+01  0.9924173E-05  0.1570796E+01  0.2239571E+04 -0.2872912E+01  0.1200485E-03  0.1217953E+01  0.3859445E+03  0.1579499E+01  0.1079658E-03  0.1710371E+01
  0.1470000E+01  0.2222053E+04 -0.1558710E+01  0.3602651E-04  0.1210716E+00  0.2266810E+04 -0.2871599E+01  0.1023658E-03 -0.2454757E+01  0.3901020E+03  0.1579744E+01  0.4954068E-04  0.1277870E+01
  0.1480000E+01  0.2245780E+04 -0.1558376E+01  0.5254677E-04  0.5403222E+00  0.2295268E+04 -0.2870425E+01  0.7519266E-04 -0.1221280E+01  0.3943209E+03  0.1579996E+01  0.8738718E-04 -0.1700756E+01
  0.1490000E+01  0.2269921E+04 -0.1558032E+01  0.6460457E-04  0.6106504E+00  0.2321534E+04 -0.2868906E+01  0.5761409E-03  0.4558770E-01  0.3986584E+03  0.1580255E+01  0.5173210E-04 -0.1853369E+01
  0.1500000E+01  0.2294243E+04 -0.1557678E+01  0.2126374E-04  0.1633054E+00  0.2349830E+04 -0.2867632E+01  0.1135872E-03  0.7012554E+00  0.4030340E+03  0.1580522E+01  0.7538185E-04  0.1604012E+01
  0.1510000E+01  0.2318985E+04 -0.1557314E+01  0.2396539E-04  0.1095470E+01  0.2378250E+04 -0.2866338E+01  0.2803550E-04  0.2656075E+01  0.4074859E+03  0.1580796E+01  0.3983025E-04 -0.1285611E+01
  0.1520000E+01  0.2343390E+04 -0.1556938E+01  0.2291799E-04  0.1570796E+01  0.2404534E+04 -0.2864709E+01  0.2581540E-03 -0.3787467E-01  0.4118685E+03  0.1581080E+01  0.4276225E-04  0.1778580E+01
  0.1530000E+01  0.2367905E+04 -0.1556551E+01  0.5577976E-04  0.2289274E+01  0.2433346E+04 -0.2863385E+01  0.2403267E-03  0.2480154E-02  0.4162563E+03  0.1581372E+01  0.1284703E-03  0.1490911E+01
  0.1540000E+01  0.2392605E+04 -0.1556151E+01  0.8280542E-05 -0.2613518E+01  0.2461488E+04 -0.2861925E+01  0.3100004E-03  0.2973915E+01  0.4206593E+03  0.1581674E+01  0.5598980E-04  0.8998793E+00
  0.1550000E+01  0.2417539E+04 -0.1555740E+01  0.8475237E-05  0.2845421E+01  0.2489155E+04 -0.2860357E+01  0.5827421E-04  0.1619912E+01  0.4251005E+03  0.1581985E+01  0.1459469E-03  0.1642737E+01
  0.1560000E+01  0.2442728E+04 -0.1555316E+01  0.3430434E-04 -0.2508517E+01  0.2518061E+04 -0.2858906E+01  0.3701769E-03 -0.2858435E-01  0.4295850E+03  0.1582305E+01  0.4106712E-04  0.2021300E+01
  0.1570000E+01  0.2468252E+04 -0.1554880E+01  0.3375477E-04  0.1962124E+01  0.2546111E+04 -0.2857289E+01  0.2021547E-03 -0.2411890E+01  0.4341241E+03  0.1582635E+01  0.2355867E-03 -0.1626993E+01
  0.1580000E+01  0.2494112E+04 -0.1554431E+01  0.1519676E-04 -0.1044839E+01  0.2574627E+04 -0.2855681E+01  0.4323355E-03 -0.3040017E+01  0.4386967E+03  0.1582976E+01  0.9044113E-04 -0.1612988E+01
  0.1590000E+01  0.2519839E+04 -0.1553969E+01  0.4095845E-04 -0.2997020E+01  0.2603452E+04 -0.2854057E+01  0.2093590E-03  0.2927139E+01  0.4432199E+03  0.1583325E+01  0.2181339E-03  0.1521592E+01
  0.1600000E+01  0.2545653E+04 -0.1553496E+01  0.7966111E-04 -0.2712658E-01  0.2632975E+04 -0.2852455E+01  0.1478146E-03 -0.5698838E+00  0.4477609E+03  0.1583683E+01  0.4866902E-04 -0.1403458E+01
  0.1610000E+01  0.2571641E+04 -0.1553009E+01  0.5816687E-04  0.1271512E+00  0.2661403E+04 -0.2850598E+01  0.1048405E-03 -0.2840878E+01  0.4523997E+03  0.1584051E+01  0.2821280E-04 -0.9586208E+00
  0.1620000E+01  0.2597916E+04 -0.1552508E+01  0.6683529E-04  0.7453439E+00  0.2691359E+04 -0.2848865E+01  0.8207038E-04  0.6307185E+00  0.4571262E+03  0.1584431E+01  0.3784826E-04 -0.1551897E+01
  0.1630000E+01  0.2624416E+04 -0.1551991E+01  0.6915964E-04  0.2682185E+01  0.2720880E+04 -0.2847275E+01  0.4287973E-04  0.1693427E+01  0.4618983E+03  0.1584822E+01  0.1652398E-03 -0.1530385E+01
  0.1640000E+01  0.2651366E+04 -0.1551460E+01  0.6118225E-04 -0.7712758E+00  0.2750528E+04 -0.2845652E+01  0.1154810E-03 -0.2979329E+01  0.4667551E+03  0.1585224E+01  0.3313954E-04  0.1877758E+01
  0.1650000E+01  0.2678509E+04 -0.1550911E+01  0.2291799E-04  0.1570796E+01  0.2780690E+04 -0.2844026E+01  0.1423714E-03 -0.3010175E+01  0.4716488E+03  0.1585641E+01  0.1397649E-03 -0.1355915E+01