VARIABLES="w (rad/s)"
"abs(F   1   1)" "angle(F   1   1)"
"abs(F   1   2)" "angle(F   1   2)"
"abs(F   1   3)" "angle(F   1   3)"
"abs(F   1   4)" "angle(F   1   4)"
"abs(F   1   5)" "angle(F   1   5)"
"abs(F   1   6)" "angle(F   1   6)"
Zone t="FKforce - beta =   0.000",I=  2986,F=POINT
  0.1500000E+00  0.8980145E+02 -0.1570613E+01  0.3585815E-03  0.2077792E-04  0.1524523E+04  0.0000000E+00  0.9239197E-02 -0.3141593E+01  0.2246716E+03 -0.1570525E+01  0.1230177E-03 -0.1074156E+00
  0.1600000E+00  0.9578050E+02 -0.1571081E+01  0.4234314E-03 -0.3141579E+01  0.1523435E+04  0.9169958E-12  0.4220009E-03 -0.3141503E+01  0.2396466E+03 -0.1570843E+01  0.2444269E-03  0.3121802E+01
  0.1700000E+00  0.1017581E+03 -0.1570987E+01  0.6904602E-03 -0.2697687E-05  0.1522279E+04  0.3058975E-12  0.3368855E-02  0.8846426E-05  0.2546208E+03 -0.1570746E+01  0.1525653E-02  0.3128443E+01
  0.1800000E+00  0.1077343E+03 -0.1570541E+01  0.3585815E-03 -0.3141587E+01  0.1521052E+04 -0.3061442E-12  0.1855659E-01  0.1580929E-05  0.2695943E+03 -0.1570679E+01  0.4884906E-03 -0.3104914E+01
  0.1900000E+00  0.1137085E+03 -0.1570875E+01  0.1682281E-02 -0.4428855E-05  0.1519750E+04 -0.9192192E-12  0.1730919E-03  0.5649535E-04  0.2845671E+03 -0.1570688E+01  0.2449380E-03 -0.2589784E-01
  0.2000000E+00  0.1196812E+03 -0.1571104E+01  0.5340576E-04 -0.3141523E+01  0.1518383E+04  0.0000000E+00  0.6995201E-02  0.2662747E-05  0.2995396E+03 -0.1570638E+01  0.3671729E-03  0.3134857E+01
  0.2100000E+00  0.1256521E+03 -0.1570799E+01  0.1277924E-02 -0.2915112E-05  0.1516947E+04  0.0000000E+00  0.1989985E-01 -0.3141593E+01  0.3145120E+03 -0.1570649E+01  0.1342073E-02 -0.3136977E+01
  0.2200000E+00  0.1316211E+03 -0.1570743E+01  0.8277893E-03  0.0000000E+00  0.1515440E+04 -0.3072779E-12  0.3321171E-02 -0.9253858E-05  0.3294834E+03 -0.1570936E+01  0.3047422E-03 -0.3265832E-01
  0.2300000E+00  0.1375877E+03 -0.1570911E+01  0.8544922E-03 -0.3141588E+01  0.1513873E+04  0.3075961E-12  0.1128197E-02  0.3141541E+01  0.3444531E+03 -0.1570806E+01  0.6102803E-03 -0.3129057E+01
  0.2400000E+00  0.1435524E+03 -0.1570522E+01  0.8468628E-03 -0.8797861E-05  0.1512221E+04  0.6158640E-12  0.2296925E-02 -0.3141586E+01  0.3594229E+03 -0.1570785E+01  0.3052263E-03 -0.1819105E-01
  0.2500000E+00  0.1495151E+03 -0.1570947E+01  0.3166199E-03 -0.3141581E+01  0.1510508E+04 -0.3082812E-12  0.3556252E-02  0.3141585E+01  0.3743915E+03 -0.1570620E+01  0.9769525E-03 -0.3133459E+01
  0.2600000E+00  0.1554754E+03 -0.1570981E+01  0.6217957E-03  0.3141575E+01  0.1508727E+04  0.3086452E-12  0.7872581E-03 -0.2011092E-04  0.3893589E+03 -0.1570850E+01  0.4879473E-03  0.9862890E-02
  0.2700000E+00  0.1614330E+03 -0.1570888E+01  0.6408691E-03 -0.2325149E-04  0.1506875E+04  0.1545122E-11  0.5210400E-02  0.8758409E-05  0.4043254E+03 -0.1570904E+01  0.6110034E-03 -0.3117656E+01
  0.2800000E+00  0.1673886E+03 -0.1570868E+01  0.6408691E-03 -0.1743862E-04  0.1504956E+04  0.1547093E-11  0.1708746E-01  0.3141593E+01  0.4192924E+03 -0.1570621E+01  0.5498927E-03 -0.3122571E+01
  0.2900000E+00  0.1733415E+03 -0.1570628E+01  0.7247925E-04  0.1027961E-03  0.1502967E+04 -0.6196562E-12  0.2591562E-01 -0.3141591E+01  0.4342564E+03 -0.1570858E+01  0.6100136E-04  0.3088667E+01
  0.3000000E+00  0.1792918E+03 -0.1570884E+01  0.7476807E-03  0.0000000E+00  0.1500906E+04  0.6205069E-12  0.8260250E-02 -0.3141586E+01  0.4492207E+03 -0.1570830E+01  0.2432127E-03  0.3094982E+01
  0.3100000E+00  0.1852394E+03 -0.1570755E+01  0.1411438E-02  0.2639358E-05  0.1498779E+04  0.2485550E-11  0.3476143E-02 -0.3141592E+01  0.4641846E+03 -0.1570917E+01  0.1037359E-02  0.3140978E+01
  0.3200000E+00  0.1911837E+03 -0.1570774E+01  0.3089905E-03 -0.1205633E-04  0.1496583E+04  0.2489197E-11  0.3427505E-02  0.3141575E+01  0.4791460E+03 -0.1570794E+01  0.4293071E-03  0.1008253E+00
  0.3300000E+00  0.1971255E+03 -0.1570731E+01  0.1094818E-02  0.3141586E+01  0.1494313E+04  0.0000000E+00  0.1164913E-01 -0.3141590E+01  0.4941075E+03 -0.1570797E+01  0.1342899E-02 -0.3084419E-02
  0.3400000E+00  0.2030643E+03 -0.1570643E+01  0.1602173E-03 -0.3141523E+01  0.1491978E+04 -0.1872660E-11  0.1202106E-02 -0.3098969E-05  0.5090685E+03 -0.1570728E+01  0.6711606E-03  0.3114256E+01
  0.3500000E+00  0.2090002E+03 -0.1570709E+01  0.3318787E-03  0.3141548E+01  0.1489581E+04  0.0000000E+00  0.5250454E-02 -0.5853522E-05  0.5240273E+03 -0.1570849E+01  0.6150772E-04 -0.3034352E+01
  0.3600000E+00  0.2149327E+03 -0.1570960E+01  0.1525880E-04 -0.1220703E-02  0.1487107E+04  0.0000000E+00  0.8789539E-02  0.2648952E-05  0.5389858E+03 -0.1570875E+01  0.1281509E-02 -0.3852088E-02
  0.3700000E+00  0.2208622E+03 -0.1570800E+01  0.6866455E-04  0.3141593E+01  0.1484569E+04  0.6273355E-12  0.4811287E-03  0.3141529E+01  0.5539431E+03 -0.1570875E+01  0.1099467E-02 -0.1613663E-03
  0.3800000E+00  0.2267881E+03 -0.1570727E+01  0.2708435E-03 -0.3141510E+01  0.1481967E+04  0.6284368E-12  0.8278370E-02  0.8100052E-05  0.5688997E+03 -0.1570741E+01  0.1038321E-02 -0.3411115E-01
  0.3900000E+00  0.2327110E+03 -0.1570789E+01  0.3280640E-03 -0.2271076E-04  0.1479287E+04 -0.1888726E-11  0.1165915E-01  0.2636012E-05  0.5838554E+03 -0.1570902E+01  0.3054154E-03  0.3138800E+01
  0.4000000E+00  0.2386299E+03 -0.1570924E+01  0.2899170E-03  0.0000000E+00  0.1476551E+04 -0.6307420E-12  0.3451824E-02  0.3141572E+01  0.5988107E+03 -0.1570828E+01  0.5492927E-03 -0.1864262E-01
  0.4100000E+00  0.2445453E+03 -0.1570738E+01  0.4577638E-04  0.3140942E+01  0.1473741E+04  0.0000000E+00  0.1126766E-02  0.3141517E+01  0.6137651E+03 -0.1570850E+01  0.2452406E-03  0.1486905E-01
  0.4200000E+00  0.2504568E+03 -0.1570959E+01  0.7629395E-04  0.4882812E-03  0.1470865E+04 -0.6331804E-12  0.4453659E-03  0.1296507E-03  0.6287165E+03 -0.1570876E+01  0.6709152E-03 -0.3137625E+01
  0.4300000E+00  0.2563650E+03 -0.1570752E+01  0.5683899E-03 -0.1310822E-04  0.1467916E+04 -0.1268905E-11  0.5890846E-02 -0.5533380E-05  0.6436687E+03 -0.1570727E+01  0.1160274E-02  0.4163285E-02
  0.4400000E+00  0.2622693E+03 -0.1570854E+01  0.7705688E-03  0.1933787E-04  0.1464906E+04 -0.6357558E-12  0.4382133E-02 -0.3141571E+01  0.6586216E+03 -0.1570794E+01  0.1282487E-02  0.3113392E+01
  0.4500000E+00  0.2681700E+03 -0.1570753E+01  0.8697510E-03  0.3141584E+01  0.1461830E+04  0.6370937E-12  0.4729271E-02 -0.7089383E-05  0.6735704E+03 -0.1570701E+01  0.2465184E-03 -0.2995774E+01
  0.4600000E+00  0.2740664E+03 -0.1570865E+01  0.4463196E-03  0.3141543E+01  0.1458686E+04  0.0000000E+00  0.3894329E-02  0.3141585E+01  0.6885194E+03 -0.1570713E+01  0.6102202E-03 -0.3114357E+01
  0.4700000E+00  0.2799587E+03 -0.1570824E+01  0.3051758E-04  0.3141349E+01  0.1455470E+04 -0.1279755E-11  0.5475044E-02  0.5103096E-05  0.7034680E+03 -0.1570866E+01  0.6713882E-03 -0.2072418E-02
  0.4800000E+00  0.2858473E+03 -0.1570811E+01  0.4043579E-03 -0.3141519E+01  0.1452193E+04  0.1923965E-11  0.1049328E-01 -0.3141589E+01  0.7184158E+03 -0.1570730E+01  0.1831912E-03 -0.3018016E+01
  0.4900000E+00  0.2917310E+03 -0.1570880E+01  0.1449585E-03  0.1541941E-03  0.1448849E+04 -0.6428017E-12  0.2727509E-02  0.2151169E-04  0.7333610E+03 -0.1570770E+01  0.1394904E-04 -0.1596437E+01
  0.5000000E+00  0.2976110E+03 -0.1570867E+01  0.5645752E-03  0.3141593E+01  0.1445439E+04  0.1288636E-11  0.1054764E-02  0.3141593E+01  0.7483075E+03 -0.1570771E+01  0.1228779E-03 -0.3026879E+01
  0.5100000E+00  0.3034863E+03 -0.1570759E+01  0.3547668E-03 -0.3141530E+01  0.1441967E+04 -0.6458694E-12  0.1289320E-01  0.2167009E-06  0.7632527E+03 -0.1570780E+01  0.4292137E-03 -0.3042943E+01
  0.5200000E+00  0.3093573E+03 -0.1570723E+01  0.4692078E-03  0.9527439E-04  0.1438426E+04 -0.1294919E-11  0.5051136E-02 -0.3141588E+01  0.7781949E+03 -0.1570837E+01  0.2454229E-03 -0.6042097E-01
  0.5300000E+00  0.3152240E+03 -0.1570832E+01  0.9155274E-04  0.3141186E+01  0.1434814E+04  0.6490894E-12  0.7699966E-02  0.3141589E+01  0.7931393E+03 -0.1570776E+01  0.1833814E-03  0.2023583E-01
  0.5400000E+00  0.3210856E+03 -0.1570772E+01  0.9155273E-04 -0.2441406E-03  0.1431146E+04 -0.1301506E-11  0.2349377E-02 -0.1268520E-04  0.8080822E+03 -0.1570792E+01  0.5508806E-03  0.3041517E+01
  0.5500000E+00  0.3269429E+03 -0.1570668E+01  0.2136230E-03  0.1743862E-03  0.1427406E+04 -0.8481953E-10  0.6774902E-02 -0.3849064E-05  0.8230254E+03 -0.1570798E+01  0.3058238E-03 -0.3065435E+01
  0.5600000E+00  0.3327953E+03 -0.1570785E+01  0.7705688E-03 -0.2900681E-04  0.1423603E+04 -0.1308402E-11  0.2803326E-02  0.3141574E+01  0.8379664E+03 -0.1570707E+01  0.1221279E-03 -0.8248451E-01
  0.5700001E+00  0.3386431E+03 -0.1570809E+01  0.1369476E-02 -0.3264276E-04  0.1419740E+04  0.3935886E-11  0.7739067E-02  0.4091574E-05  0.8529069E+03 -0.1570813E+01  0.7319715E-03 -0.2690196E-01
  0.5800000E+00  0.3444855E+03 -0.1570707E+01  0.8277893E-03 -0.9000576E-05  0.1415810E+04  0.3289011E-11  0.9929657E-02  0.6190273E-05  0.8678479E+03 -0.1570837E+01  0.3043438E-03  0.3137523E+01
  0.5900000E+00  0.3503238E+03 -0.1570724E+01  0.2980232E-07 -0.1570796E+01  0.1411812E+04 -0.1319329E-11  0.6171703E-02  0.9355926E-05  0.8827887E+03 -0.1570779E+01  0.3666934E-03  0.3136044E+01
  0.6000000E+00  0.3561566E+03 -0.1570738E+01  0.8392334E-04  0.0000000E+00  0.1407751E+04 -0.1323136E-11  0.5507469E-03 -0.3382035E-05  0.8977289E+03 -0.1570784E+01  0.1465084E-02 -0.1424557E-02
  0.6100000E+00  0.3619846E+03 -0.1570775E+01  0.4158020E-03 -0.3141539E+01  0.1403627E+04  0.2654046E-11  0.2052307E-02  0.3141562E+01  0.9126667E+03 -0.1570814E+01  0.1587689E-02  0.8684134E-02
  0.6200000E+00  0.3678073E+03 -0.1570777E+01  0.1945496E-03  0.3829657E-04  0.1399439E+04  0.1330994E-11  0.2855301E-02 -0.1793952E-04  0.9276072E+03 -0.1570802E+01  0.9789685E-03  0.6655689E-01
  0.6300000E+00  0.3736247E+03 -0.1570838E+01  0.6332397E-03  0.4706325E-04  0.1395191E+04 -0.1335047E-11  0.3611565E-02 -0.7220425E-05  0.9425474E+03 -0.1570746E+01  0.4878045E-03 -0.6901804E-03
  0.6400000E+00  0.3794362E+03 -0.1570767E+01  0.6904602E-03  0.4316299E-04  0.1390879E+04 -0.2678372E-11  0.8797646E-03 -0.4234417E-05  0.9574858E+03 -0.1570749E+01  0.4279040E-03  0.5018338E-01
  0.6500000E+00  0.3852431E+03 -0.1570766E+01  0.9155273E-04  0.3141593E+01  0.1386505E+04  0.0000000E+00  0.1802921E-02 -0.3141531E+01  0.9724247E+03 -0.1570797E+01  0.1867324E-03 -0.1804165E+00
  0.6600000E+00  0.3910448E+03 -0.1570785E+01  0.8773804E-04 -0.3141423E+01  0.1382067E+04  0.0000000E+00  0.1024055E-01 -0.3141578E+01  0.9873638E+03 -0.1570744E+01  0.4279313E-03  0.2041763E-01
  0.6700001E+00  0.3968415E+03 -0.1570836E+01  0.2555847E-03  0.3141563E+01  0.1377568E+04 -0.1352126E-11  0.2646446E-03  0.3141353E+01  0.1002306E+04 -0.1570799E+01  0.6098586E-03  0.3102719E+01
  0.6800001E+00  0.4026318E+03 -0.1570738E+01  0.6294250E-03 -0.3141569E+01  0.1373007E+04  0.8411030E-10  0.2878141E-01 -0.1359056E-05  0.1017246E+04 -0.1570779E+01  0.6241557E-04  0.4706429E-01
  0.6900001E+00  0.4084162E+03 -0.1570795E+01  0.3738403E-03  0.3141573E+01  0.1368384E+04  0.0000000E+00  0.1512527E-02 -0.3817584E-04  0.1032187E+04 -0.1570792E+01  0.4903073E-03  0.3056174E+01
  0.7000000E+00  0.4141952E+03 -0.1570798E+01  0.2670291E-04 -0.1395088E-02  0.1363703E+04  0.9014764E-10  0.2031326E-02 -0.4584801E-05  0.1047127E+04 -0.1570809E+01  0.6107017E-03 -0.1913158E-01
  0.7100000E+00  0.4199693E+03 -0.1570771E+01  0.1945496E-03 -0.3141478E+01  0.1358959E+04  0.0000000E+00  0.2141857E-01  0.3141586E+01  0.1062067E+04 -0.1570817E+01  0.2460321E-03  0.1117228E+00
  0.7200000E+00  0.4257371E+03 -0.1570787E+01  0.2288831E-04  0.3138337E+01  0.1354154E+04  0.0000000E+00  0.1435280E-02 -0.3141571E+01  0.1077009E+04 -0.1570785E+01  0.1234447E-03 -0.1357679E+00
  0.7300000E+00  0.4314988E+03 -0.1570796E+01  0.3814697E-05  0.0000000E+00  0.1349286E+04  0.2760933E-11  0.2659798E-02 -0.2381006E-04  0.1091953E+04 -0.1570782E+01  0.1846172E-03  0.1280617E+00
  0.7400000E+00  0.4372551E+03 -0.1570803E+01  0.1296997E-03  0.0000000E+00  0.1344363E+04 -0.2771046E-11  0.3921986E-02 -0.2089666E-04  0.1106897E+04 -0.1570774E+01  0.6296162E-04  0.2237028E+00
  0.7500000E+00  0.4430051E+03 -0.1570859E+01  0.1792908E-03  0.0000000E+00  0.1339376E+04 -0.1390681E-11  0.1943588E-02  0.5845958E-04  0.1121844E+04 -0.1570809E+01  0.4897091E-03  0.5395231E-01
  0.7600000E+00  0.4487493E+03 -0.1570762E+01  0.6484987E-04  0.6893381E-03  0.1334337E+04 -0.1395933E-11  0.2200127E-02 -0.5756936E-04  0.1136788E+04 -0.1570809E+01  0.1709285E-02 -0.1458344E-01
  0.7700000E+00  0.4544882E+03 -0.1570851E+01  0.1373291E-03  0.3255208E-03  0.1329231E+04 -0.2802591E-11  0.5375862E-02 -0.1593822E-04  0.1151739E+04 -0.1570781E+01  0.9184642E-03 -0.3070183E+01
  0.7800000E+00  0.4602199E+03 -0.1570760E+01  0.2937317E-03 -0.3141491E+01  0.1324070E+04 -0.2813515E-11  0.1177979E-01  0.3141590E+01  0.1166685E+04 -0.1570836E+01  0.4274244E-03 -0.3097431E+01
  0.7900000E+00  0.4659461E+03 -0.1570747E+01  0.3623962E-03  0.0000000E+00  0.1318850E+04  0.1412325E-11  0.2754211E-02  0.3141549E+01  0.1181636E+04 -0.1570812E+01  0.9780971E-03 -0.3090104E+01
  0.8000000E+00  0.4716656E+03 -0.1570836E+01  0.1373291E-03 -0.3141484E+01  0.1313575E+04 -0.4253992E-11  0.3940582E-02  0.1512585E-04  0.1196587E+04 -0.1570771E+01  0.9154804E-03  0.1256099E-01
  0.8099999E+00  0.4773798E+03 -0.1570779E+01  0.6484985E-04  0.3141363E+01  0.1308242E+04  0.9966437E-11  0.1152039E-02 -0.1002432E-03  0.1211546E+04 -0.1570822E+01  0.6726116E-03  0.4324668E-01
  0.8200001E+00  0.4830866E+03 -0.1570741E+01  0.5722048E-04  0.3140811E+01  0.1302849E+04  0.8578022E-11  0.2810478E-02 -0.3141591E+01  0.1226500E+04 -0.1570782E+01  0.1222259E-03 -0.6707299E-01
  0.8300000E+00  0.4887881E+03 -0.1570852E+01  0.1678467E-03 -0.3551136E-03  0.1297404E+04  0.2871341E-11  0.4197121E-02  0.2707126E-04  0.1241458E+04 -0.1570821E+01  0.1614357E-04  0.1526476E+01
  0.8400000E+00  0.4944831E+03 -0.1570789E+01  0.6484985E-03 -0.3141570E+01  0.1291901E+04  0.4325357E-11  0.5540848E-03 -0.2386779E-03  0.1256419E+04 -0.1570770E+01  0.3057688E-03 -0.2757290E-01
  0.8500000E+00  0.5001711E+03 -0.1570836E+01  0.3929138E-03 -0.3141517E+01  0.1286342E+04  0.8688104E-11  0.6908417E-02 -0.1779490E-04  0.1271385E+04 -0.1570844E+01  0.2471115E-03 -0.2980251E+01
  0.8600000E+00  0.5058535E+03 -0.1570813E+01  0.7095337E-03 -0.2100134E-04  0.1280726E+04  0.0000000E+00  0.3350735E-02 -0.3141540E+01  0.1286353E+04 -0.1570807E+01  0.6732244E-03 -0.3056537E+01
  0.8700000E+00  0.5115287E+03 -0.1570809E+01  0.4463196E-03 -0.3141559E+01  0.1275059E+04 -0.9057149E-10  0.1616096E-01 -0.7145860E-05  0.1301321E+04 -0.1570857E+01  0.3676681E-03  0.4572233E-01
  0.8800000E+00  0.5171980E+03 -0.1570782E+01  0.5874634E-03 -0.5073052E-04  0.1269336E+04  0.1467417E-11  0.1871586E-02  0.9952229E-06  0.1316292E+04 -0.1570802E+01  0.1076917E-03 -0.2161320E+01
  0.8900001E+00  0.5228610E+03 -0.1570765E+01  0.7247931E-04  0.3140359E+01  0.1263559E+04  0.0000000E+00  0.2257824E-02 -0.2887408E-04  0.1331272E+04 -0.1570833E+01  0.7693042E-04  0.2469522E+01
  0.9000000E+00  0.5285167E+03 -0.1570769E+01  0.8697510E-03  0.3141558E+01  0.1257727E+04  0.1480962E-11  0.4077435E-02  0.5847269E-04  0.1346251E+04 -0.1570804E+01  0.6719062E-03  0.3130332E+01
  0.9100001E+00  0.5341662E+03 -0.1570809E+01  0.5645752E-03  0.3141514E+01  0.1251844E+04  0.1487921E-11  0.1599789E-02  0.3141448E+01  0.1361232E+04 -0.1570782E+01  0.2145481E-03 -0.5492972E+00
  0.9200000E+00  0.5398087E+03 -0.1570810E+01  0.2059937E-03  0.3141593E+01  0.1245909E+04 -0.1495008E-11  0.4940510E-02 -0.1206447E-04  0.1376217E+04 -0.1570775E+01  0.1859328E-03 -0.2939579E+01
  0.9300001E+00  0.5454453E+03 -0.1570809E+01  0.3509521E-03  0.3141508E+01  0.1239923E+04 -0.1502226E-11  0.9403706E-02 -0.1267684E-04  0.1391209E+04 -0.1570820E+01  0.8546504E-03 -0.3116112E+01
  0.9400001E+00  0.5510740E+03 -0.1570757E+01  0.1602173E-03  0.2790178E-03  0.1233883E+04  0.0000000E+00  0.1636028E-02 -0.3141521E+01  0.1406207E+04 -0.1570797E+01  0.2461488E-03 -0.3006382E+01
  0.9500000E+00  0.5566973E+03 -0.1570838E+01  0.1640320E-03  0.2725291E-03  0.1227795E+04  0.1517065E-11  0.1739025E-02  0.2077907E-03  0.1421205E+04 -0.1570819E+01  0.6105570E-03  0.2594099E-01
  0.9600000E+00  0.5623126E+03 -0.1570762E+01  0.1335144E-03  0.3348214E-03  0.1221656E+04  0.0000000E+00  0.8829117E-02 -0.3141574E+01  0.1436209E+04 -0.1570835E+01  0.4899739E-03 -0.6691770E-01
  0.9700000E+00  0.5679224E+03 -0.1570831E+01  0.3585815E-03 -0.3141510E+01  0.1215467E+04  0.3064904E-11  0.5745888E-02 -0.1102178E-04  0.1451220E+04 -0.1570805E+01  0.8504046E-04 -0.7742932E+00
  0.9800000E+00  0.5735250E+03 -0.1570735E+01  0.1029968E-03  0.3141593E+01  0.1209228E+04  0.6161437E-11  0.5352020E-02 -0.1044080E-05  0.1466239E+04 -0.1570826E+01  0.9182360E-03 -0.3063092E+01
  0.9900000E+00  0.5791207E+03 -0.1570760E+01  0.4539490E-03  0.3141428E+01  0.1202942E+04  0.1548408E-11  0.1823330E-01  0.3141586E+01  0.1481258E+04 -0.1570774E+01  0.7942471E-03 -0.5648886E-01
  0.1000000E+01  0.5847095E+03 -0.1570762E+01  0.4196171E-04  0.1420454E-02  0.1196608E+04  0.1556604E-11  0.2385139E-02 -0.2733282E-04  0.1496284E+04 -0.1570776E+01  0.3723092E-03 -0.2949985E+01
  0.1010000E+01  0.5902913E+03 -0.1570775E+01  0.1068115E-03  0.4185268E-03  0.1190227E+04  0.0000000E+00  0.4210472E-03  0.3141296E+01  0.1511315E+04 -0.1570784E+01  0.4317473E-03 -0.1325273E+00
  0.1020000E+01  0.5958660E+03 -0.1570866E+01  0.2365112E-03  0.6300403E-04  0.1183797E+04 -0.1573450E-11  0.2223015E-02  0.2848831E-04  0.1526352E+04 -0.1570765E+01  0.6725676E-03 -0.4170414E-01
  0.1030000E+01  0.6014352E+03 -0.1570790E+01  0.2250671E-03 -0.1324153E-03  0.1177322E+04  0.0000000E+00  0.5617142E-02 -0.8953205E-05  0.1541396E+04 -0.1570799E+01  0.6105707E-03 -0.3102877E+01
  0.1040000E+01  0.6069961E+03 -0.1570810E+01  0.2059937E-03  0.3141376E+01  0.1170804E+04  0.3181821E-11  0.5819321E-02  0.3141585E+01  0.1556447E+04 -0.1570816E+01  0.3196844E-03 -0.2829304E+01
  0.1050000E+01  0.6125500E+03 -0.1570792E+01  0.3738403E-03  0.3141553E+01  0.1164240E+04  0.1599881E-11  0.8344650E-03  0.1607143E-03  0.1571506E+04 -0.1570822E+01  0.1162573E-02  0.7355686E-01
  0.1060000E+01  0.6180977E+03 -0.1570828E+01  0.2365112E-03 -0.3141404E+01  0.1157629E+04 -0.1609017E-11  0.1385689E-02 -0.3141509E+01  0.1586572E+04 -0.1570808E+01  0.2499612E-03  0.2227975E+00
  0.1070000E+01  0.6236389E+03 -0.1570820E+01  0.1525885E-04 -0.2929679E-02  0.1150977E+04 -0.1618317E-11  0.2586794E-01  0.3141583E+01  0.1601645E+04 -0.1570799E+01  0.2807405E-04 -0.1545316E+01
  0.1080000E+01  0.6291717E+03 -0.1570831E+01  0.1335144E-03 -0.3348214E-03  0.1144282E+04  0.0000000E+00  0.1287469E-04  0.3137976E+01  0.1616722E+04 -0.1570810E+01  0.7312018E-04 -0.5590367E+00
  0.1090000E+01  0.6346990E+03 -0.1570798E+01  0.1029968E-03 -0.3141159E+01  0.1137544E+04  0.1637426E-11  0.3932476E-02  0.7483782E-04  0.1631816E+04 -0.1570815E+01  0.8560177E-03 -0.4351354E-01
  0.1100000E+01  0.6402187E+03 -0.1570783E+01  0.4577645E-04  0.1953123E-02  0.1130768E+04  0.0000000E+00  0.4555225E-02  0.3141568E+01  0.1646911E+04 -0.1570815E+01  0.6747973E-03  0.3046433E+01
  0.1110000E+01  0.6457308E+03 -0.1570754E+01  0.3433228E-04 -0.4340278E-03  0.1123948E+04 -0.1657235E-11  0.1334715E-01 -0.3181826E-04  0.1662015E+04 -0.1570779E+01  0.9783199E-03 -0.6759597E-01
  0.1120000E+01  0.6512369E+03 -0.1570791E+01  0.4005432E-03  0.3141481E+01  0.1117089E+04 -0.1667411E-11  0.8888245E-02 -0.2724316E-04  0.1677131E+04 -0.1570786E+01  0.3162308E-03  0.2867900E+01
  0.1130000E+01  0.6567353E+03 -0.1570845E+01  0.2250671E-03 -0.1324153E-03  0.1110192E+04  0.3355538E-11  0.9828091E-02 -0.3141579E+01  0.1692253E+04 -0.1570805E+01  0.1925599E-03  0.2826931E+01
  0.1140000E+01  0.6622271E+03 -0.1570808E+01  0.8850098E-03  0.3141576E+01  0.1103256E+04 -0.5064948E-11  0.1800537E-02 -0.3141487E+01  0.1707387E+04 -0.1570800E+01  0.9159643E-03  0.3096921E+01
  0.1150000E+01  0.6677120E+03 -0.1570809E+01  0.1907349E-03  0.4687500E-03  0.1096283E+04  0.1699056E-11  0.7524491E-03 -0.3141207E+01  0.1722530E+04 -0.1570824E+01  0.3666886E-03 -0.3139490E+01
  0.1160000E+01  0.6731884E+03 -0.1570803E+01  0.3623962E-03  0.1644737E-03  0.1089273E+04 -0.1709989E-11  0.8304119E-03 -0.3141570E+01  0.1737681E+04 -0.1570811E+01  0.1037761E-02  0.1775757E-01
  0.1170000E+01  0.6786597E+03 -0.1570841E+01  0.1258850E-03 -0.1183712E-03  0.1082226E+04  0.0000000E+00  0.3485680E-03 -0.1763423E-03  0.1752843E+04 -0.1570815E+01  0.1221928E-02 -0.1577614E-01
  0.1180000E+01  0.6841235E+03 -0.1570806E+01  0.3051758E-04  0.3141593E+01  0.1075145E+04  0.1732460E-11  0.1502037E-02 -0.8308532E-04  0.1768018E+04 -0.1570802E+01  0.5518415E-03  0.3035187E+01
  0.1190000E+01  0.6895797E+03 -0.1570798E+01  0.3738403E-03  0.1594388E-03  0.1068028E+04  0.1744003E-11  0.7236481E-02  0.3141575E+01  0.1783203E+04 -0.1570800E+01  0.7949317E-04 -0.2448546E+01
  0.1200000E+01  0.6950295E+03 -0.1570795E+01  0.8964539E-03 -0.3141543E+01  0.1060880E+04  0.1053452E-10  0.2375126E-02 -0.3141515E+01  0.1798395E+04 -0.1570799E+01  0.4282215E-03 -0.4825934E-01
  0.1210000E+01  0.7004716E+03 -0.1570804E+01  0.3814814E-05  0.7812341E-02  0.1053698E+04 -0.1767722E-11  0.3753424E-02  0.3225640E-04  0.1813603E+04 -0.1570788E+01  0.6733363E-03  0.6615156E-01
  0.1220000E+01  0.7059070E+03 -0.1570779E+01  0.1415253E-02 -0.1052898E-04  0.1046487E+04 -0.3559806E-11  0.3730059E-02 -0.6591563E-04  0.1828822E+04 -0.1570789E+01  0.2506868E-03  0.2116232E+00
  0.1230000E+01  0.7113365E+03 -0.1570813E+01  0.2670290E-04 -0.1116071E-02  0.1039243E+04  0.1792309E-11  0.1609325E-02 -0.1516204E-03  0.1844054E+04 -0.1570812E+01  0.6718938E-03 -0.3397885E-01
  0.1240000E+01  0.7167571E+03 -0.1570823E+01  0.3051758E-03 -0.3141446E+01  0.1031969E+04 -0.1804943E-11  0.7672787E-02 -0.2403323E-04  0.1859295E+04 -0.1570808E+01  0.4278636E-03  0.1001072E-01
  0.1250000E+01  0.7221711E+03 -0.1570796E+01  0.1869202E-03 -0.2391582E-03  0.1024667E+04  0.0000000E+00  0.3279448E-02 -0.3141536E+01  0.1874552E+04 -0.1570789E+01  0.2533954E-03 -0.2883075E+01
  0.1260000E+01  0.7275785E+03 -0.1570823E+01  0.1144409E-03 -0.3141462E+01  0.1017337E+04 -0.3661804E-11  0.1199961E-02 -0.4967216E-04  0.1889821E+04 -0.1570785E+01  0.7415741E-03 -0.2976313E+01
  0.1270000E+01  0.7329784E+03 -0.1570812E+01  0.7629395E-04  0.3906250E-03  0.1009979E+04  0.3688481E-11  0.6666899E-02 -0.2011587E-04  0.1905100E+04 -0.1570800E+01  0.3658877E-03 -0.1371493E-01
  0.1280000E+01  0.7383713E+03 -0.1570812E+01  0.5073547E-03 -0.3141563E+01  0.1002599E+04  0.7431267E-11  0.3433228E-03  0.3141072E+01  0.1920396E+04 -0.1570789E+01  0.2476579E-03 -0.1629033E+00
  0.1290000E+01  0.7437571E+03 -0.1570831E+01  0.1106262E-03 -0.2693966E-03  0.9951907E+03  0.0000000E+00  0.5014181E-02  0.1151574E-04  0.1935704E+04 -0.1570792E+01  0.1099211E-02  0.3103041E+01
  0.1300000E+01  0.7491372E+03 -0.1570777E+01  0.7095337E-03  0.8400538E-04  0.9877579E+03  0.3771461E-11  0.1720667E-02  0.3141529E+01  0.1951029E+04 -0.1570773E+01  0.4912190E-03 -0.1094226E+00
  0.1310000E+01  0.7545080E+03 -0.1570813E+01  0.1029968E-03  0.0000000E+00  0.9803033E+03  0.3800141E-11  0.6651163E-02 -0.3141531E+01  0.1966366E+04 -0.1570812E+01  0.1099047E-02 -0.2318584E-01
  0.1320000E+01  0.7598730E+03 -0.1570796E+01  0.2670290E-04 -0.1116071E-02  0.9728278E+03  0.0000000E+00  0.4661560E-02  0.3141592E+01  0.1981715E+04 -0.1570804E+01  0.2482524E-03  0.1848870E+00
  0.1330000E+01  0.7652296E+03 -0.1570788E+01  0.7629395E-05  0.3141593E+01  0.9653315E+03  0.3859079E-11  0.3163576E-02 -0.4062571E-04  0.1997080E+04 -0.1570772E+01  0.3705689E-03 -0.1535143E+00
  0.1340000E+01  0.7705810E+03 -0.1570801E+01  0.4081726E-03  0.3141593E+01  0.9578143E+03 -0.1944683E-11  0.6292820E-02  0.9767845E-05  0.2012464E+04 -0.1570778E+01  0.7971289E-03 -0.3047146E+01
  0.1350000E+01  0.7759236E+03 -0.1570802E+01  0.2708435E-03  0.3141483E+01  0.9502770E+03  0.9800538E-11  0.1147270E-02  0.3141447E+01  0.2027861E+04 -0.1570805E+01  0.9157843E-03 -0.6358122E-02
  0.1360000E+01  0.7812598E+03 -0.1570807E+01  0.2021790E-03  0.0000000E+00  0.9427244E+03  0.3951622E-11  0.2720833E-02 -0.3141504E+01  0.2043274E+04 -0.1570811E+01  0.1835301E-03 -0.3073557E+01
  0.1370000E+01  0.7865890E+03 -0.1570788E+01  0.5722047E-04  0.3141072E+01  0.9351561E+03 -0.9959006E-11  0.5296469E-02 -0.8862255E-04  0.2058696E+04 -0.1570799E+01  0.1038870E-02 -0.3913223E-01
  0.1380000E+01  0.7919105E+03 -0.1570807E+01  0.1945496E-03  0.3141286E+01  0.9275703E+03  0.2008091E-11  0.1003504E-02  0.6125267E-04  0.2074138E+04 -0.1570778E+01  0.1541666E-03  0.6570334E+00
  0.1390000E+01  0.7972235E+03 -0.1570801E+01  0.2365112E-03  0.3141593E+01  0.9199711E+03  0.2024678E-11  0.6492615E-02 -0.1721321E-04  0.2089597E+04 -0.1570759E+01  0.2459499E-03 -0.2998190E+01
  0.1400000E+01  0.8025308E+03 -0.1570786E+01  0.4158020E-03  0.0000000E+00  0.9123593E+03  0.0000000E+00  0.3268480E-02  0.3647239E-04  0.2105072E+04 -0.1570786E+01  0.3237254E-03  0.2797040E+01
  0.1410000E+01  0.8078303E+03 -0.1570807E+01  0.4997253E-03  0.3141414E+01  0.9047356E+03  0.0000000E+00  0.7314683E-03  0.3284917E-03  0.2120562E+04 -0.1570756E+01  0.4132340E-04  0.1562142E+01
  0.1420000E+01  0.8131229E+03 -0.1570792E+01  0.8583069E-03 -0.3141558E+01  0.8970996E+03  0.2076297E-11  0.7057428E-02  0.3325479E-04  0.2136069E+04 -0.1570789E+01  0.3701927E-03  0.2994791E+01
  0.1430000E+01  0.8184082E+03 -0.1570797E+01  0.6484988E-04  0.3140674E+01  0.8894565E+03 -0.2094138E-11  0.5359650E-02  0.4378892E-04  0.2151594E+04 -0.1570787E+01  0.9069175E-04 -0.2294921E+01
  0.1440000E+01  0.8236866E+03 -0.1570798E+01  0.3051764E-04 -0.1953123E-02  0.8818021E+03  0.2112316E-11  0.3283739E-02 -0.7657646E-04  0.2167137E+04 -0.1570811E+01  0.1892439E-03  0.2891233E+01
  0.1450000E+01  0.8289568E+03 -0.1570798E+01  0.5302429E-03  0.5620504E-04  0.8741423E+03  0.2130826E-11  0.8797646E-03 -0.6351626E-05  0.2182696E+04 -0.1570815E+01  0.3182236E-04  0.1570796E+01
  0.1460000E+01  0.8342187E+03 -0.1570819E+01  0.2250672E-03 -0.3141195E+01  0.8664750E+03 -0.6449044E-11  0.3556490E-02 -0.3509000E-04  0.2198268E+04 -0.1570825E+01  0.4329310E-03 -0.2975984E+01
  0.1470000E+01  0.8394731E+03 -0.1570789E+01  0.1068116E-03  0.3140756E+01  0.8588043E+03 -0.4337764E-11  0.5887508E-02 -0.3141591E+01  0.2213861E+04 -0.1570776E+01  0.3669411E-06 -0.1570796E+01
  0.1480000E+01  0.8447208E+03 -0.1570776E+01  0.4730225E-03 -0.1260081E-03  0.8511302E+03 -0.8753749E-11  0.3287315E-02 -0.3852988E-04  0.2229469E+04 -0.1570793E+01  0.3693387E-03 -0.1198837E+00
  0.1490000E+01  0.8499601E+03 -0.1570805E+01  0.3051764E-04 -0.3139640E+01  0.8434540E+03  0.2208354E-11  0.4950047E-02  0.1505154E-05  0.2245093E+04 -0.1570780E+01  0.4885343E-03 -0.7741808E-02
  0.1500000E+01  0.8551918E+03 -0.1570806E+01  0.6446838E-03  0.3141546E+01  0.8357751E+03  0.1114322E-10  0.5251687E-05  0.4967501E-01  0.2260736E+04 -0.1570829E+01  0.1350135E-03 -0.4288802E+00
  0.1510000E+01  0.8604164E+03 -0.1570785E+01  0.1907349E-03 -0.3125000E-03  0.8280981E+03 -0.1124652E-10  0.3386974E-02 -0.3141484E+01  0.2276393E+04 -0.1570815E+01  0.4282268E-03 -0.5395120E-01
  0.1520000E+01  0.8656317E+03 -0.1570818E+01  0.4577637E-03 -0.3141462E+01  0.8204219E+03  0.0000000E+00  0.3123311E-04 -0.3137358E+01  0.2292073E+04 -0.1570769E+01  0.3711508E-03  0.1376241E+00
  0.1530000E+01  0.8708398E+03 -0.1570797E+01  0.2517700E-03  0.3141593E+01  0.8127468E+03  0.4583580E-11  0.3640652E-03 -0.3141296E+01  0.2307763E+04 -0.1570795E+01  0.1289257E-03  0.2802716E+01
  0.1540000E+01  0.8760404E+03 -0.1570810E+01  0.8010866E-04  0.7440475E-03  0.8050782E+03  0.1156810E-10  0.1131725E-01  0.9216736E-05  0.2323476E+04 -0.1570796E+01  0.1849490E-03  0.2991407E+01
  0.1550000E+01  0.8812311E+03 -0.1570786E+01  0.1335145E-03  0.1116071E-02  0.7974125E+03 -0.2335861E-11  0.1330853E-02  0.4408702E-03  0.2339201E+04 -0.1570809E+01  0.2447426E-03  0.4468926E-01
  0.1560000E+01  0.8864136E+03 -0.1570796E+01  0.5493164E-03  0.0000000E+00  0.7897544E+03  0.1415107E-10  0.1650333E-02 -0.3141507E+01  0.2354946E+04 -0.1570802E+01  0.6156694E-03 -0.1285428E+00
  0.1570000E+01  0.8915894E+03 -0.1570787E+01  0.6485010E-04 -0.3138835E+01  0.7821041E+03  0.7144747E-11  0.1908064E-02  0.3141467E+01  0.2370702E+04 -0.1570793E+01  0.2476927E-03  0.1695597E+00
  0.1580000E+01  0.8967556E+03 -0.1570780E+01  0.2899170E-03 -0.1027961E-03  0.7744614E+03  0.0000000E+00  0.3083706E-02 -0.3865780E-04  0.2386481E+04 -0.1570816E+01  0.4954512E-03  0.2968444E+01
  0.1590000E+01  0.9019131E+03 -0.1570783E+01  0.7629395E-04  0.3141202E+01  0.7668312E+03  0.2429016E-11  0.5925417E-02  0.3141589E+01  0.2402268E+04 -0.1570784E+01  0.1160360E-02  0.3099056E+01
  0.1600000E+01  0.9070610E+03 -0.1570779E+01  0.2326965E-03 -0.3842213E-03  0.7592109E+03 -0.2453396E-11  0.4593134E-02  0.2595380E-04  0.2418075E+04 -0.1570797E+01  0.9154136E-03  0.3125087E+01
  0.1610000E+01  0.9122007E+03 -0.1570788E+01  0.4692078E-03  0.3141593E+01  0.7516032E+03  0.2478229E-11  0.1974106E-02 -0.3141472E+01  0.2433897E+04 -0.1570787E+01  0.8154964E-04  0.7250869E+00
  0.1620000E+01  0.9173312E+03 -0.1570818E+01  0.3051758E-03  0.3141495E+01  0.7440110E+03 -0.1502111E-10  0.2413988E-02  0.3141493E+01  0.2449735E+04 -0.1570768E+01  0.7934517E-03  0.2423936E-01
  0.1630000E+01  0.9224529E+03 -0.1570783E+01  0.3509521E-03  0.1698370E-03  0.7364329E+03  0.0000000E+00  0.1171589E-02  0.3141383E+01  0.2465585E+04 -0.1570781E+01  0.2034455E-03  0.4523180E+00
  0.1640000E+01  0.9275643E+03 -0.1570805E+01  0.2670288E-03 -0.3141481E+01  0.7288718E+03  0.3117732E-09  0.1315355E-02  0.3141498E+01  0.2481449E+04 -0.1570785E+01  0.4276049E-03 -0.2356596E-02
  0.1650000E+01  0.9326650E+03 -0.1570815E+01  0.8773804E-04  0.3141593E+01  0.7213281E+03  0.0000000E+00  0.2555132E-02 -0.1443384E-03  0.2497327E+04 -0.1570796E+01  0.4286871E-03  0.6708277E-01