 VARIABLES="Time (s)"
"AddedMass    1" "IRF    1"
"AddedMass    2" "IRF    2"
"AddedMass    3" "IRF    3"
"AddedMass    4" "IRF    4"
"AddedMass    5" "IRF    5"
"AddedMass    6" "IRF    6"
Zone t="DoF    1",I=   100,F=POINT
  0.0000000E+00  0.7173757E+04  0.1975994E+05  0.8736036E-09  0.1447928E-07  0.4797788E-05 -0.4506592E-04  0.1213144E-09  0.9959609E-07  0.1755050E+05  0.6426111E+05 -0.2833082E-03 -0.3736673E-03
  0.1000000E+00  0.7173757E+04  0.1758614E+05  0.8736036E-09  0.1284462E-07  0.4797788E-05 -0.4398775E-04  0.1213144E-09  0.8703422E-07  0.1755050E+05  0.5698808E+05 -0.2833082E-03 -0.3290248E-03
  0.2000000E+00  0.7173757E+04  0.1166958E+05  0.8736036E-09  0.8468527E-08  0.4797788E-05 -0.4079186E-04  0.1213144E-09  0.5329139E-07  0.1755050E+05  0.3722747E+05 -0.2833082E-03 -0.2111201E-03
  0.3000000E+00  0.7173757E+04  0.3702659E+04  0.8736036E-09  0.2841084E-08  0.4797788E-05 -0.3550430E-04  0.1213144E-09  0.8724559E-08  0.1755050E+05  0.1073238E+05 -0.2833082E-03 -0.6009511E-04
  0.4000000E+00  0.7173757E+04 -0.4008460E+04  0.8736036E-09 -0.2058573E-08  0.4797788E-05 -0.2805535E-04  0.1213144E-09 -0.3380759E-07  0.1755050E+05 -0.1468150E+05 -0.2833082E-03  0.7818310E-04
  0.5000000E+00  0.7173757E+04 -0.9418306E+04  0.8736036E-09 -0.4717709E-08  0.4797788E-05 -0.1845568E-04  0.1213144E-09 -0.6362091E-07  0.1755050E+05 -0.3212871E+05 -0.2833082E-03  0.1698223E-03
  0.6000000E+00  0.7173757E+04 -0.1162085E+05  0.8736036E-09 -0.4936831E-08  0.4797788E-05 -0.7138248E-05  0.1213144E-09 -0.7527389E-07  0.1755050E+05 -0.3864679E+05 -0.2833082E-03  0.2021143E-03
  0.7000000E+00  0.7173757E+04 -0.1109334E+05  0.8736036E-09 -0.3731232E-08  0.4797788E-05  0.4941075E-05  0.1213144E-09 -0.6875015E-07  0.1755050E+05 -0.3600427E+05 -0.2833082E-03  0.1834830E-03
  0.8000000E+00  0.7173757E+04 -0.9093464E+04  0.8736036E-09 -0.2305007E-08  0.4797788E-05  0.1664550E-04  0.1213144E-09 -0.4787581E-07  0.1755050E+05 -0.2860908E+05 -0.2833082E-03  0.1369070E-03
  0.9000000E+00  0.7173757E+04 -0.6732376E+04  0.8736036E-09 -0.1157464E-08  0.4797788E-05  0.2714973E-04  0.1213144E-09 -0.1906158E-07  0.1755050E+05 -0.2031711E+05 -0.2833082E-03  0.8928278E-04
  0.1000000E+01  0.7173757E+04 -0.4480797E+04  0.8736036E-09 -0.2280195E-09  0.4797788E-05  0.3611958E-04  0.1213144E-09  0.9349487E-08  0.1755050E+05 -0.1273410E+05 -0.2833082E-03  0.5969963E-04
  0.1100000E+01  0.7173757E+04 -0.2348336E+04  0.8736036E-09  0.2798424E-09  0.4797788E-05  0.4347666E-04  0.1213144E-09  0.2889324E-07  0.1755050E+05 -0.5835514E+04 -0.2833082E-03  0.5183662E-04
  0.1200000E+01  0.7173757E+04 -0.3250502E+03  0.8736036E-09 -0.4360955E-09  0.4797788E-05  0.4908788E-04  0.1213144E-09  0.3462981E-07  0.1755050E+05  0.5048147E+03 -0.2833082E-03  0.5523080E-04
  0.1300000E+01  0.7173757E+04  0.1422477E+04  0.8736036E-09 -0.3123253E-08  0.4797788E-05  0.5271812E-04  0.1213144E-09  0.2803470E-07  0.1755050E+05  0.5820272E+04 -0.2833082E-03  0.5449709E-04
  0.1400000E+01  0.7173757E+04  0.2679447E+04  0.8736036E-09 -0.7596141E-08  0.4797788E-05  0.5421692E-04  0.1213144E-09  0.1581018E-07  0.1755050E+05  0.9469230E+04 -0.2833082E-03  0.3945236E-04
  0.1500000E+01  0.7173757E+04  0.3356644E+04  0.8736036E-09 -0.1263903E-07  0.4797788E-05  0.5366081E-04  0.1213144E-09  0.5016938E-08  0.1755050E+05  0.1121718E+05 -0.2833082E-03  0.9273311E-05
  0.1600000E+01  0.7173757E+04  0.3503567E+04  0.8736036E-09 -0.1668199E-07  0.4797788E-05  0.5130358E-04  0.1213144E-09 -0.1109780E-08  0.1755050E+05  0.1127885E+05 -0.2833082E-03 -0.2982566E-04
  0.1700000E+01  0.7173757E+04  0.3225584E+04  0.8736036E-09 -0.1837062E-07  0.4797788E-05  0.4744906E-04  0.1213144E-09 -0.3250270E-08  0.1755050E+05  0.1003690E+05 -0.2833082E-03 -0.6865516E-04
  0.1800000E+01  0.7173757E+04  0.2647334E+04  0.8736036E-09 -0.1654351E-07  0.4797788E-05  0.4241210E-04  0.1213144E-09 -0.3350032E-08  0.1755050E+05  0.7919762E+04 -0.2833082E-03 -0.9732819E-04
  0.1900000E+01  0.7173757E+04  0.1923630E+04  0.8736036E-09 -0.1017870E-07  0.4797788E-05  0.3655421E-04  0.1213144E-09 -0.2975195E-08  0.1755050E+05  0.5442475E+04 -0.2833082E-03 -0.1068910E-03
  0.2000000E+01  0.7173757E+04  0.1210294E+04  0.8736036E-09  0.9412661E-09  0.4797788E-05  0.3028154E-04  0.1213144E-09 -0.3661963E-08  0.1755050E+05  0.3110888E+04 -0.2833082E-03 -0.9272296E-04
  0.2100000E+01  0.7173757E+04  0.5953971E+03  0.8736036E-09  0.1514374E-07  0.4797788E-05  0.2396729E-04  0.1213144E-09 -0.6809250E-08  0.1755050E+05  0.1192277E+04 -0.2833082E-03 -0.5852734E-04
  0.2200000E+01  0.7173757E+04  0.8468563E+02  0.8736036E-09  0.2862732E-07  0.4797788E-05  0.1788911E-04  0.1213144E-09 -0.1175955E-07  0.1755050E+05 -0.3284222E+03 -0.2833082E-03 -0.1667306E-04
  0.2300000E+01  0.7173757E+04 -0.3301556E+03  0.8736036E-09  0.3686743E-07  0.4797788E-05  0.1224041E-04  0.1213144E-09 -0.1459069E-07  0.1755050E+05 -0.1510883E+04 -0.2833082E-03  0.1709869E-04
  0.2400000E+01  0.7173757E+04 -0.6175004E+03  0.8736036E-09  0.3689679E-07  0.4797788E-05  0.7155252E-05  0.1213144E-09 -0.1050795E-07  0.1755050E+05 -0.2272219E+04 -0.2833082E-03  0.3127957E-04
  0.2500000E+01  0.7173757E+04 -0.7472806E+03  0.8736036E-09  0.2875199E-07  0.4797788E-05  0.2673766E-05  0.1213144E-09  0.1776443E-08  0.1755050E+05 -0.2527854E+04 -0.2833082E-03  0.2310710E-04
  0.2600000E+01  0.7173757E+04 -0.7623773E+03  0.8736036E-09  0.1512217E-07  0.4797788E-05 -0.1315080E-05  0.1213144E-09  0.1851043E-07  0.1755050E+05 -0.2435556E+04 -0.2833082E-03 -0.2015746E-05
  0.2700000E+01  0.7173757E+04 -0.7549041E+03  0.8736036E-09 -0.1897051E-09  0.4797788E-05 -0.5047613E-05  0.1213144E-09  0.3391096E-07  0.1755050E+05 -0.2314908E+04 -0.2833082E-03 -0.3370393E-04
  0.2800000E+01  0.7173757E+04 -0.7554216E+03  0.8736036E-09 -0.1368639E-07  0.4797788E-05 -0.8767384E-05  0.1213144E-09  0.4375480E-07  0.1755050E+05 -0.2269433E+04 -0.2833082E-03 -0.5943647E-04
  0.2900000E+01  0.7173757E+04 -0.6883029E+03  0.8736036E-09 -0.2286052E-07  0.4797788E-05 -0.1263353E-04  0.1213144E-09  0.4531924E-07  0.1755050E+05 -0.2034755E+04 -0.2833082E-03 -0.6717031E-04
  0.3000000E+01  0.7173757E+04 -0.4801971E+03  0.8736036E-09 -0.2648362E-07  0.4797788E-05 -0.1674445E-04  0.1213144E-09  0.3526187E-07  0.1755050E+05 -0.1350231E+04 -0.2833082E-03 -0.4931273E-04
  0.3100000E+01  0.7173757E+04 -0.1947543E+03  0.8736036E-09 -0.2486264E-07  0.4797788E-05 -0.2120002E-04  0.1213144E-09  0.1074143E-07  0.1755050E+05 -0.4213800E+03 -0.2833082E-03 -0.7135133E-05
  0.3200000E+01  0.7173757E+04  0.2626698E+00  0.8736036E-09 -0.1977996E-07  0.4797788E-05 -0.2605819E-04  0.1213144E-09 -0.2522981E-07  0.1755050E+05  0.1895264E+03 -0.2833082E-03  0.4818748E-04
  0.3300000E+01  0.7173757E+04  0.2329269E+02  0.8736036E-09 -0.1368633E-07  0.4797788E-05 -0.3119082E-04  0.1213144E-09 -0.6040488E-07  0.1755050E+05  0.2111865E+03 -0.2833082E-03  0.1001974E-03
  0.3400000E+01  0.7173757E+04 -0.9227959E+01  0.8736036E-09 -0.8441922E-08  0.4797788E-05 -0.3622393E-04  0.1213144E-09 -0.7813734E-07  0.1755050E+05  0.4504575E+02 -0.2833082E-03  0.1345716E-03
  0.3500000E+01  0.7173757E+04  0.8322134E+02  0.8736036E-09 -0.4528399E-08  0.4797788E-05 -0.4069409E-04  0.1213144E-09 -0.6824109E-07  0.1755050E+05  0.3100037E+03 -0.2833082E-03  0.1438054E-03
  0.3600000E+01  0.7173757E+04  0.3076074E+03  0.8736036E-09 -0.1290710E-08  0.4797788E-05 -0.4430143E-04  0.1213144E-09 -0.3453553E-07  0.1755050E+05  0.1033130E+04 -0.2833082E-03  0.1269351E-03
  0.3700000E+01  0.7173757E+04  0.4556303E+03  0.8736036E-09  0.2175637E-08  0.4797788E-05 -0.4699852E-04  0.1213144E-09  0.7464047E-08  0.1755050E+05  0.1507449E+04 -0.2833082E-03  0.8735470E-04
  0.3800000E+01  0.7173757E+04  0.3360247E+03  0.8736036E-09  0.6264857E-08  0.4797788E-05 -0.4883036E-04  0.1213144E-09  0.3993847E-07  0.1755050E+05  0.1083112E+04 -0.2833082E-03  0.3235569E-04
  0.3900000E+01  0.7173757E+04  0.1597497E+02  0.8736036E-09  0.1056866E-07  0.4797788E-05 -0.4972517E-04  0.1213144E-09  0.5133106E-07  0.1755050E+05 -0.1094453E+02 -0.2833082E-03 -0.2651313E-04
  0.4000000E+01  0.7173757E+04 -0.2235720E+03  0.8736036E-09  0.1393468E-07  0.4797788E-05 -0.4948816E-04  0.1213144E-09  0.3966820E-07  0.1755050E+05 -0.8203179E+03 -0.2833082E-03 -0.7608916E-04
  0.4100000E+01  0.7173757E+04 -0.1797796E+03  0.8736036E-09  0.1483983E-07  0.4797788E-05 -0.4799776E-04  0.1213144E-09  0.1197244E-07  0.1755050E+05 -0.6596341E+03 -0.2833082E-03 -0.1076741E-03
  0.4200000E+01  0.7173757E+04  0.6353407E+02  0.8736036E-09  0.1218486E-07  0.4797788E-05 -0.4536284E-04  0.1213144E-09 -0.1814469E-07  0.1755050E+05  0.1792591E+03 -0.2833082E-03 -0.1213580E-03
  0.4300000E+01  0.7173757E+04  0.2382948E+03  0.8736036E-09  0.6236070E-08  0.4797788E-05 -0.4186047E-04  0.1213144E-09 -0.3540496E-07  0.1755050E+05  0.7798896E+03 -0.2833082E-03 -0.1235347E-03
  0.4400000E+01  0.7173757E+04  0.1745157E+03  0.8736036E-09 -0.1054009E-08  0.4797788E-05 -0.3773270E-04  0.1213144E-09 -0.3058287E-07  0.1755050E+05  0.5652654E+03 -0.2833082E-03 -0.1193161E-03
  0.4500000E+01  0.7173757E+04 -0.4921291E+02  0.8736036E-09 -0.6827822E-08  0.4797788E-05 -0.3306492E-04  0.1213144E-09 -0.6680846E-08  0.1755050E+05 -0.1912260E+03 -0.2833082E-03 -0.1070855E-03
  0.4600000E+01  0.7173757E+04 -0.2181590E+03  0.8736036E-09 -0.8722809E-08  0.4797788E-05 -0.2784099E-04  0.1213144E-09  0.2255510E-07  0.1755050E+05 -0.7538297E+03 -0.2833082E-03 -0.8009216E-04
  0.4700000E+01  0.7173757E+04 -0.1988238E+03  0.8736036E-09 -0.5909655E-08  0.4797788E-05 -0.2206937E-04  0.1213144E-09  0.4201396E-07  0.1755050E+05 -0.6692917E+03 -0.2833082E-03 -0.3289058E-04
  0.4800000E+01  0.7173757E+04 -0.3603986E+02  0.8736036E-09  0.6539962E-09  0.4797788E-05 -0.1583530E-04  0.1213144E-09  0.4471824E-07  0.1755050E+05 -0.9774631E+02 -0.2833082E-03  0.3302071E-04
  0.4900000E+01  0.7173757E+04  0.1235872E+03  0.8736036E-09  0.8433780E-08  0.4797788E-05 -0.9263157E-05  0.1213144E-09  0.3342973E-07  0.1755050E+05  0.4526130E+03 -0.2833082E-03  0.1072552E-03
  0.5000000E+01  0.7173757E+04  0.1657452E+03  0.8736036E-09  0.1381135E-07  0.4797788E-05 -0.2478375E-05  0.1213144E-09  0.1486035E-07  0.1755050E+05  0.5882301E+03 -0.2833082E-03  0.1716323E-03
  0.5100000E+01  0.7173757E+04  0.7958090E+02  0.8736036E-09  0.1328387E-07  0.4797788E-05  0.4373121E-05  0.1213144E-09 -0.5787828E-08  0.1755050E+05  0.2759980E+03 -0.2833082E-03  0.2039690E-03
  0.5200000E+01  0.7173757E+04 -0.5870707E+02  0.8736036E-09  0.5500874E-08  0.4797788E-05  0.1108062E-04  0.1213144E-09 -0.2481339E-07  0.1755050E+05 -0.2143008E+03 -0.2833082E-03  0.1856949E-03
  0.5300000E+01  0.7173757E+04 -0.1502171E+03  0.8736036E-09 -0.7059837E-08  0.4797788E-05  0.1736383E-04  0.1213144E-09 -0.3762161E-07  0.1755050E+05 -0.5349310E+03 -0.2833082E-03  0.1120808E-03
  0.5400000E+01  0.7173757E+04 -0.1399581E+03  0.8736036E-09 -0.1863073E-07  0.4797788E-05  0.2292914E-04  0.1213144E-09 -0.3974020E-07  0.1755050E+05 -0.4936146E+03 -0.2833082E-03 -0.9429697E-06
  0.5500000E+01  0.7173757E+04 -0.4839784E+02  0.8736036E-09 -0.2331598E-07  0.4797788E-05  0.2755400E-04  0.1213144E-09 -0.3099145E-07  0.1755050E+05 -0.1639974E+03 -0.2833082E-03 -0.1198544E-03
  0.5600000E+01  0.7173757E+04  0.5354416E+02  0.8736036E-09 -0.1882628E-07  0.4797788E-05  0.3114879E-04  0.1213144E-09 -0.1676352E-07  0.1755050E+05  0.2018851E+03 -0.2833082E-03 -0.2064862E-03
  0.5700000E+01  0.7173757E+04  0.1058958E+03  0.8736036E-09 -0.7896451E-08  0.4797788E-05  0.3375231E-04  0.1213144E-09 -0.3351756E-08  0.1755050E+05  0.3890658E+03 -0.2833082E-03 -0.2334078E-03
  0.5800000E+01  0.7173757E+04  0.1001870E+03  0.8736036E-09  0.3638572E-08  0.4797788E-05  0.3545434E-04  0.1213144E-09  0.7594926E-08  0.1755050E+05  0.3638405E+03 -0.2833082E-03 -0.1933423E-03
  0.5900000E+01  0.7173757E+04  0.6417146E+02  0.8736036E-09  0.1042469E-07  0.4797788E-05  0.3628555E-04  0.1213144E-09  0.1861559E-07  0.1755050E+05  0.2239261E+03 -0.2833082E-03 -0.9971205E-04
  0.6000000E+01  0.7173757E+04  0.2074270E+02  0.8736036E-09  0.1023314E-07  0.4797788E-05  0.3615152E-04  0.1213144E-09  0.3043103E-07  0.1755050E+05  0.5594577E+02 -0.2833082E-03  0.1928143E-04
  0.6100000E+01  0.7173757E+04 -0.2466031E+02  0.8736036E-09  0.4444551E-08  0.4797788E-05  0.3486062E-04  0.1213144E-09  0.3797686E-07  0.1755050E+05 -0.1124860E+03 -0.2833082E-03  0.1297033E-03
  0.6200000E+01  0.7173757E+04 -0.6293922E+02  0.8736036E-09 -0.3088902E-08  0.4797788E-05  0.3221586E-04  0.1213144E-09  0.3362775E-07  0.1755050E+05 -0.2451453E+03 -0.2833082E-03  0.2020238E-03
  0.6300000E+01  0.7173757E+04 -0.7174593E+02  0.8736036E-09 -0.7793177E-08  0.4797788E-05  0.2810071E-04  0.1213144E-09  0.1414807E-07  0.1755050E+05 -0.2660885E+03 -0.2833082E-03  0.2200525E-03
  0.6400000E+01  0.7173757E+04 -0.4066860E+02  0.8736036E-09 -0.6240923E-08  0.4797788E-05  0.2251842E-04  0.1213144E-09 -0.1580769E-07  0.1755050E+05 -0.1442391E+03 -0.2833082E-03  0.1850777E-03
  0.6500000E+01  0.7173757E+04  0.5463477E+01  0.8736036E-09  0.2177337E-08  0.4797788E-05  0.1561360E-04  0.1213144E-09 -0.4589931E-07  0.1755050E+05  0.2983204E+02 -0.2833082E-03  0.1128244E-03
  0.6600000E+01  0.7173757E+04  0.2718653E+02  0.8736036E-09  0.1453128E-07  0.4797788E-05  0.7705264E-05  0.1213144E-09 -0.6439385E-07  0.1755050E+05  0.1165211E+03 -0.2833082E-03  0.2514180E-04
  0.6700000E+01  0.7173757E+04  0.1521616E+02  0.8736036E-09  0.2538125E-07  0.4797788E-05 -0.6909932E-06  0.1213144E-09 -0.6156783E-07  0.1755050E+05  0.8109338E+02 -0.2833082E-03 -0.5822341E-04
  0.6800000E+01  0.7173757E+04 -0.1492207E+00  0.8736036E-09  0.2936671E-07  0.4797788E-05 -0.8907852E-05  0.1213144E-09 -0.3326891E-07  0.1755050E+05  0.2579210E+02 -0.2833082E-03 -0.1235535E-03
  0.6900000E+01  0.7173757E+04  0.9177108E+01  0.8736036E-09  0.2392254E-07  0.4797788E-05 -0.1624233E-04  0.1213144E-09  0.1466979E-07  0.1755050E+05  0.4708994E+02 -0.2833082E-03 -0.1629771E-03
  0.7000000E+01  0.7173757E+04  0.3043674E+02  0.8736036E-09  0.1050193E-07  0.4797788E-05 -0.2207351E-04  0.1213144E-09  0.6516763E-07  0.1755050E+05  0.1039626E+03 -0.2833082E-03 -0.1733283E-03
  0.7100000E+01  0.7173757E+04  0.2732476E+02  0.8736036E-09 -0.6273515E-08  0.4797788E-05 -0.2591670E-04  0.1213144E-09  0.9651325E-07  0.1755050E+05  0.7679170E+02 -0.2833082E-03 -0.1560456E-03
  0.7200000E+01  0.7173757E+04 -0.8474723E+01  0.8736036E-09 -0.2086509E-07  0.4797788E-05 -0.2742909E-04  0.1213144E-09  0.9452853E-07  0.1755050E+05 -0.5767644E+02 -0.2833082E-03 -0.1170870E-03
  0.7300000E+01  0.7173757E+04 -0.4069172E+02  0.8736036E-09 -0.2924449E-07  0.4797788E-05 -0.2643747E-04  0.1213144E-09  0.6081289E-07  0.1755050E+05 -0.1714502E+03 -0.2833082E-03 -0.6510662E-04
  0.7400000E+01  0.7173757E+04 -0.3156950E+02  0.8736036E-09 -0.3039200E-07  0.4797788E-05 -0.2301044E-04  0.1213144E-09  0.1012063E-07  0.1755050E+05 -0.1341260E+03 -0.2833082E-03 -0.8388704E-05
  0.7500000E+01  0.7173757E+04  0.9288870E+01  0.8736036E-09 -0.2619611E-07  0.4797788E-05 -0.1750862E-04  0.1213144E-09 -0.3980621E-07  0.1755050E+05  0.1969632E+02 -0.2833082E-03  0.4684322E-04
  0.7600000E+01  0.7173757E+04  0.3382526E+02  0.8736036E-09 -0.1980914E-07  0.4797788E-05 -0.1053273E-04  0.1213144E-09 -0.7640100E-07  0.1755050E+05  0.1215534E+03 -0.2833082E-03  0.9541830E-04
  0.7700000E+01  0.7173757E+04  0.1294169E+02  0.8736036E-09 -0.1349006E-07  0.4797788E-05 -0.2782434E-05  0.1213144E-09 -0.9346279E-07  0.1755050E+05  0.6684120E+02 -0.2833082E-03  0.1314565E-03
  0.7800000E+01  0.7173757E+04 -0.2812535E+02  0.8736036E-09 -0.7473417E-08  0.4797788E-05  0.5072446E-05  0.1213144E-09 -0.8900767E-07  0.1755050E+05 -0.6270478E+02 -0.2833082E-03  0.1487874E-03
  0.7900000E+01  0.7173757E+04 -0.3982097E+02  0.8736036E-09 -0.6568296E-09  0.4797788E-05  0.1243127E-04  0.1213144E-09 -0.6517858E-07  0.1755050E+05 -0.1004265E+03 -0.2833082E-03  0.1436675E-03
  0.8000000E+01  0.7173757E+04 -0.6869909E+01  0.8736036E-09  0.7695403E-08  0.4797788E-05  0.1874059E-04  0.1213144E-09 -0.2964100E-07  0.1755050E+05  0.5423995E+01 -0.2833082E-03  0.1168091E-03
  0.8100000E+01  0.7173757E+04  0.3439266E+02  0.8736036E-09  0.1686869E-07  0.4797788E-05  0.2350213E-04  0.1213144E-09  0.6358510E-08  0.1755050E+05  0.1322586E+03 -0.2833082E-03  0.7259803E-04
  0.8200000E+01  0.7173757E+04  0.3828331E+02  0.8736036E-09  0.2500052E-07  0.4797788E-05  0.2634829E-04  0.1213144E-09  0.3424766E-07  0.1755050E+05  0.1270909E+03 -0.2833082E-03  0.1708448E-04
  0.8300000E+01  0.7173757E+04  0.6134363E+00  0.8736036E-09  0.3002380E-07  0.4797788E-05  0.2713112E-04  0.1213144E-09  0.5295189E-07  0.1755050E+05 -0.2023396E+02 -0.2833082E-03 -0.4229962E-04
  0.8400001E+01  0.7173757E+04 -0.3830843E+02  0.8736036E-09  0.3019860E-07  0.4797788E-05  0.2594581E-04  0.1213144E-09  0.6653744E-07  0.1755050E+05 -0.1673968E+03 -0.2833082E-03 -0.9543695E-04
  0.8500000E+01  0.7173757E+04 -0.3726789E+02  0.8736036E-09  0.2429624E-07  0.4797788E-05  0.2307594E-04  0.1213144E-09  0.7670327E-07  0.1755050E+05 -0.1695613E+03 -0.2833082E-03 -0.1301515E-03
  0.8600000E+01  0.7173757E+04  0.5209764E+01  0.8736036E-09  0.1226524E-07  0.4797788E-05  0.1890862E-04  0.1213144E-09  0.7841181E-07  0.1755050E+05 -0.1954992E+02 -0.2833082E-03 -0.1367837E-03
  0.8700000E+01  0.7173757E+04  0.5205658E+02  0.8736036E-09 -0.3641942E-08  0.4797788E-05  0.1386972E-04  0.1213144E-09  0.6388355E-07  0.1755050E+05  0.1551573E+03 -0.2833082E-03 -0.1137892E-03
  0.8800000E+01  0.7173757E+04  0.6317680E+02  0.8736036E-09 -0.1867738E-07  0.4797788E-05  0.8381088E-05  0.1213144E-09  0.3108776E-07  0.1755050E+05  0.2137071E+03 -0.2833082E-03 -0.6933296E-04
  0.8900001E+01  0.7173757E+04  0.2929448E+02  0.8736036E-09 -0.2748266E-07  0.4797788E-05  0.2823835E-05  0.1213144E-09 -0.1190556E-07  0.1755050E+05  0.1187413E+03 -0.2833082E-03 -0.1740236E-04
  0.9000000E+01  0.7173757E+04 -0.2270841E+02  0.8736036E-09 -0.2715191E-07  0.4797788E-05 -0.2496952E-05  0.1213144E-09 -0.5084771E-07  0.1755050E+05 -0.4333363E+02 -0.2833082E-03  0.2817127E-04
  0.9100000E+01  0.7173757E+04 -0.5334244E+02  0.8736036E-09 -0.1903235E-07  0.4797788E-05 -0.7369857E-05  0.1213144E-09 -0.7354206E-07  0.1755050E+05 -0.1409888E+03 -0.2833082E-03  0.5784626E-04
  0.9200000E+01  0.7173757E+04 -0.4317633E+02  0.8736036E-09 -0.7741825E-08  0.4797788E-05 -0.1166722E-04  0.1213144E-09 -0.7552857E-07  0.1755050E+05 -0.1084641E+03 -0.2833082E-03  0.6793810E-04
  0.9300000E+01  0.7173757E+04 -0.8827642E+01  0.8736036E-09  0.1673606E-08  0.4797788E-05 -0.1531375E-04  0.1213144E-09 -0.6037352E-07  0.1755050E+05 -0.8949021E+00 -0.2833082E-03  0.6097152E-04
  0.9400001E+01  0.7173757E+04  0.1261171E+02  0.8736036E-09  0.6200966E-08  0.4797788E-05 -0.1824831E-04  0.1213144E-09 -0.3662639E-07  0.1755050E+05  0.5773819E+02 -0.2833082E-03  0.4489876E-04
  0.9500000E+01  0.7173757E+04 -0.7148296E+00  0.8736036E-09  0.5625216E-08  0.4797788E-05 -0.2039700E-04  0.1213144E-09 -0.1420941E-07  0.1755050E+05 -0.4383979E+01 -0.2833082E-03  0.2990860E-04
  0.9600000E+01  0.7173757E+04 -0.3317493E+02  0.8736036E-09  0.1950485E-08  0.4797788E-05 -0.2167273E-04  0.1213144E-09 -0.8767379E-09  0.1755050E+05 -0.1312595E+03 -0.2833082E-03  0.2314065E-04
  0.9700000E+01  0.7173757E+04 -0.4688424E+02  0.8736036E-09 -0.1663236E-08  0.4797788E-05 -0.2200254E-04  0.1213144E-09  0.1147258E-08  0.1755050E+05 -0.1909850E+03 -0.2833082E-03  0.2443963E-04
  0.9800000E+01  0.7173757E+04 -0.1993346E+02  0.8736036E-09 -0.2173039E-08  0.4797788E-05 -0.2136305E-04  0.1213144E-09 -0.3464707E-08  0.1755050E+05 -0.1063268E+03 -0.2833082E-03  0.2645260E-04
  0.9900001E+01  0.7173757E+04  0.3265316E+02  0.8736036E-09  0.1896970E-08  0.4797788E-05 -0.1979416E-04  0.1213144E-09 -0.5865992E-08  0.1755050E+05  0.7322529E+02 -0.2833082E-03  0.1931180E-04
Zone t="DoF    2",I=   100,F=POINT
  0.0000000E+00  0.5333316E-07  0.2233956E-07  0.4000659E+02  0.4469279E+02 -0.9183468E-09  0.6960349E-08 -0.9976620E+02 -0.1492205E+03  0.1405512E-06  0.3482792E-05 -0.1033845E-04 -0.4483104E-04
  0.1000000E+00  0.5333316E-07 -0.2945159E-09  0.4000659E+02  0.4027884E+02 -0.9183468E-09  0.6829619E-08 -0.9976620E+02 -0.1339387E+03  0.1405512E-06  0.3142987E-05 -0.1033845E-04 -0.3773215E-04
  0.2000000E+00  0.5333316E-07 -0.6087720E-07  0.4000659E+02  0.2825793E+02 -0.9183468E-09  0.6438448E-08 -0.9976620E+02 -0.9242346E+02  0.1405512E-06  0.2187087E-05 -0.1033845E-04 -0.1883298E-04
  0.3000000E+00  0.5333316E-07 -0.1395329E-06  0.4000659E+02  0.1188418E+02 -0.9183468E-09  0.5790914E-08 -0.9976620E+02 -0.3619644E+02  0.1405512E-06  0.7969320E-06 -0.1033845E-04  0.5189597E-05
  0.4000000E+00  0.5333316E-07 -0.2094242E-06  0.4000659E+02 -0.4664395E+01 -0.9183468E-09  0.4896447E-08 -0.9976620E+02  0.2001176E+02  0.1405512E-06 -0.7554034E-06 -0.1033845E-04  0.2543239E-04
  0.5000000E+00  0.5333316E-07 -0.2442335E-06  0.4000659E+02 -0.1771428E+02 -0.9183468E-09  0.3772170E-08 -0.9976620E+02  0.6338077E+02  0.1405512E-06 -0.2156418E-05 -0.1033845E-04  0.3458708E-04
  0.6000000E+00  0.5333316E-07 -0.2256127E-06  0.4000659E+02 -0.2523794E+02 -0.9183468E-09  0.2445273E-08 -0.9976620E+02  0.8706601E+02  0.1405512E-06 -0.3115834E-05 -0.1033845E-04  0.3070732E-04
  0.7000000E+00  0.5333316E-07 -0.1488743E-06  0.4000659E+02 -0.2717793E+02 -0.9183468E-09  0.9560145E-09 -0.9976620E+02  0.9129369E+02  0.1405512E-06 -0.3432762E-05 -0.1033845E-04  0.1798411E-04
  0.8000000E+00  0.5333316E-07 -0.2554003E-07  0.4000659E+02 -0.2488433E+02 -0.9183468E-09 -0.6384411E-09 -0.9976620E+02  0.8125235E+02  0.1405512E-06 -0.3044252E-05 -0.1033845E-04  0.3609163E-05
  0.9000000E+00  0.5333316E-07  0.1182779E-06  0.4000659E+02 -0.2013618E+02 -0.9183468E-09 -0.2261284E-08 -0.9976620E+02  0.6350100E+02  0.1405512E-06 -0.2041109E-05 -0.1033845E-04 -0.6767360E-05
  0.1000000E+01  0.5333316E-07  0.2479311E-06  0.4000659E+02 -0.1437788E+02 -0.9183468E-09 -0.3817460E-08 -0.9976620E+02  0.4319970E+02  0.1405512E-06 -0.6462899E-06 -0.1033845E-04 -0.1141097E-04
  0.1100000E+01  0.5333316E-07  0.3297106E-06  0.4000659E+02 -0.8486691E+01 -0.9183468E-09 -0.5200999E-08 -0.9976620E+02  0.2330343E+02  0.1405512E-06  0.8374192E-06 -0.1033845E-04 -0.1157252E-04
  0.1200000E+01  0.5333316E-07  0.3412266E-06  0.4000659E+02 -0.2934908E+01 -0.9183468E-09 -0.6307360E-08 -0.9976620E+02  0.5212661E+01  0.1405512E-06  0.2096374E-05 -0.1033845E-04 -0.9184637E-05
  0.1300000E+01  0.5333316E-07  0.2793113E-06  0.4000659E+02  0.1969723E+01 -0.9183468E-09 -0.7047268E-08 -0.9976620E+02 -0.1029100E+02  0.1405512E-06  0.2875151E-05 -0.1033845E-04 -0.5585715E-05
  0.1400000E+01  0.5333316E-07  0.1624141E-06  0.4000659E+02  0.5954660E+01 -0.9183468E-09 -0.7358309E-08 -0.9976620E+02 -0.2252319E+02  0.1405512E-06  0.3030254E-05 -0.1033845E-04 -0.1701361E-05
  0.1500000E+01  0.5333316E-07  0.2612209E-07  0.4000659E+02  0.8762317E+01 -0.9183468E-09 -0.7212014E-08 -0.9976620E+02 -0.3079103E+02  0.1405512E-06  0.2556847E-05 -0.1033845E-04  0.1525044E-05
  0.1600000E+01  0.5333316E-07 -0.8727408E-07  0.4000659E+02  0.1018350E+02 -0.9183468E-09 -0.6616201E-08 -0.9976620E+02 -0.3449672E+02  0.1405512E-06  0.1583372E-05 -0.1033845E-04  0.3311888E-05
  0.1700000E+01  0.5333316E-07 -0.1421121E-06  0.4000659E+02  0.1012385E+02 -0.9183468E-09 -0.5613963E-08 -0.9976620E+02 -0.3337490E+02  0.1405512E-06  0.3367502E-06 -0.1033845E-04  0.3459323E-05
  0.1800000E+01  0.5333316E-07 -0.1213070E-06  0.4000659E+02  0.8685352E+01 -0.9183468E-09 -0.4280228E-08 -0.9976620E+02 -0.2779320E+02  0.1405512E-06 -0.9118719E-06 -0.1033845E-04  0.2345008E-05
  0.1900000E+01  0.5333316E-07 -0.3276518E-07  0.4000659E+02  0.6206070E+01 -0.9183468E-09 -0.2716020E-08 -0.9976620E+02 -0.1890956E+02  0.1405512E-06 -0.1906840E-05 -0.1033845E-04  0.5560757E-06
  0.2000000E+01  0.5333316E-07  0.9225833E-07  0.4000659E+02  0.3210036E+01 -0.9183468E-09 -0.1039998E-08 -0.9976620E+02 -0.8511531E+01  0.1405512E-06 -0.2459370E-05 -0.1033845E-04 -0.1332930E-05
  0.2100000E+01  0.5333316E-07  0.2086876E-06  0.4000659E+02  0.2878939E+00 -0.9183468E-09  0.6226473E-09 -0.9976620E+02  0.1394504E+01  0.1405512E-06 -0.2480744E-05 -0.1033845E-04 -0.2736372E-05
  0.2200000E+01  0.5333316E-07  0.2720227E-06  0.4000659E+02 -0.2027428E+01 -0.9183468E-09  0.2152056E-08 -0.9976620E+02  0.9011191E+01  0.1405512E-06 -0.1992788E-05 -0.1033845E-04 -0.3152688E-05
  0.2300000E+01  0.5333316E-07  0.2527750E-06  0.4000659E+02 -0.3357257E+01 -0.9183468E-09  0.3444302E-08 -0.9976620E+02  0.1308198E+02  0.1405512E-06 -0.1116168E-05 -0.1033845E-04 -0.2486712E-05
  0.2400000E+01  0.5333316E-07  0.1460660E-06  0.4000659E+02 -0.3558972E+01 -0.9183468E-09  0.4419301E-08 -0.9976620E+02  0.1317510E+02  0.1405512E-06 -0.4081248E-07 -0.1033845E-04 -0.1178176E-05
  0.2500000E+01  0.5333316E-07 -0.2667781E-07  0.4000659E+02 -0.2786469E+01 -0.9183468E-09  0.5026534E-08 -0.9976620E+02  0.9897931E+01  0.1405512E-06  0.1014963E-05 -0.1033845E-04  0.1695150E-06
  0.2600000E+01  0.5333316E-07 -0.2241875E-06  0.4000659E+02 -0.1468462E+01 -0.9183468E-09  0.5248618E-08 -0.9976620E+02  0.4819121E+01  0.1405512E-06  0.1847961E-05 -0.1033845E-04  0.1282289E-05
  0.2700000E+01  0.5333316E-07 -0.3973842E-06  0.4000659E+02 -0.1565047E+00 -0.9183468E-09  0.5101637E-08 -0.9976620E+02 -0.7682689E-01  0.1405512E-06  0.2307303E-05 -0.1033845E-04  0.2211856E-05
  0.2800000E+01  0.5333316E-07 -0.5027959E-06  0.4000659E+02  0.7019774E+00 -0.9183468E-09  0.4630988E-08 -0.9976620E+02 -0.3203846E+01  0.1405512E-06  0.2318130E-05 -0.1033845E-04  0.2875745E-05
  0.2900000E+01  0.5333316E-07 -0.5132370E-06  0.4000659E+02  0.9272773E+00 -0.9183468E-09  0.3902600E-08 -0.9976620E+02 -0.3956288E+01  0.1405512E-06  0.1888980E-05 -0.1033845E-04  0.2865333E-05
  0.3000000E+01  0.5333316E-07 -0.4233012E-06  0.4000659E+02  0.6139253E+00 -0.9183468E-09  0.2992800E-08 -0.9976620E+02 -0.2720751E+01  0.1405512E-06  0.1104891E-05 -0.1033845E-04  0.1925829E-05
  0.3100000E+01  0.5333316E-07 -0.2493485E-06  0.4000659E+02  0.1783240E-01 -0.9183468E-09  0.1980262E-08 -0.9976620E+02 -0.4571214E+00  0.1405512E-06  0.1103233E-06 -0.1033845E-04  0.5158375E-06
  0.3200000E+01  0.5333316E-07 -0.2518804E-07  0.4000659E+02 -0.5675712E+00 -0.9183468E-09  0.9411191E-09 -0.9976620E+02  0.1754477E+01  0.1405512E-06 -0.9146861E-06 -0.1033845E-04 -0.4331814E-06
  0.3300000E+01  0.5333316E-07  0.2049659E-06  0.4000659E+02 -0.8928641E+00 -0.9183468E-09 -0.5468126E-10 -0.9976620E+02  0.3006812E+01  0.1405512E-06 -0.1783852E-05 -0.1033845E-04 -0.4670483E-06
  0.3400000E+01  0.5333316E-07  0.3950236E-06  0.4000659E+02 -0.8212664E+00 -0.9183468E-09 -0.9480284E-09 -0.9976620E+02  0.2807851E+01  0.1405512E-06 -0.2337304E-05 -0.1033845E-04 -0.1397088E-06
  0.3500000E+01  0.5333316E-07  0.5059751E-06  0.4000659E+02 -0.4002936E+00 -0.9183468E-09 -0.1695977E-08 -0.9976620E+02  0.1334306E+01  0.1405512E-06 -0.2472631E-05 -0.1033845E-04 -0.3547117E-06
  0.3600000E+01  0.5333316E-07  0.5140073E-06  0.4000659E+02  0.1302205E+00 -0.9183468E-09 -0.2275062E-08 -0.9976620E+02 -0.5422089E+00  0.1405512E-06 -0.2166876E-05 -0.1033845E-04 -0.1211836E-05
  0.3700000E+01  0.5333316E-07  0.4161232E-06  0.4000659E+02  0.4656236E+00 -0.9183468E-09 -0.2680773E-08 -0.9976620E+02 -0.1717848E+01  0.1405512E-06 -0.1482802E-05 -0.1033845E-04 -0.1780931E-05
  0.3800000E+01  0.5333316E-07  0.2318172E-06  0.4000659E+02  0.4453595E+00 -0.9183468E-09 -0.2923931E-08 -0.9976620E+02 -0.1612883E+01  0.1405512E-06 -0.5571599E-06 -0.1033845E-04 -0.1172909E-05
  0.3900000E+01  0.5333316E-07  0.3751978E-10  0.4000659E+02  0.1693594E+00 -0.9183468E-09 -0.3026118E-08 -0.9976620E+02 -0.5918292E+00  0.1405512E-06  0.4272514E-06 -0.1033845E-04  0.3277607E-06
  0.4000000E+01  0.5333316E-07 -0.2283230E-06  0.4000659E+02 -0.9761575E-01 -0.9183468E-09 -0.3015257E-08 -0.9976620E+02  0.3854332E+00  0.1405512E-06  0.1280051E-05 -0.1033845E-04  0.1445278E-05
  0.4100000E+01  0.5333316E-07 -0.4012900E-06  0.4000659E+02 -0.1542408E+00 -0.9183468E-09 -0.2920597E-08 -0.9976620E+02  0.5925775E+00  0.1405512E-06  0.1844275E-05 -0.1033845E-04  0.1238273E-05
  0.4200000E+01  0.5333316E-07 -0.4779227E-06  0.4000659E+02 -0.1401745E-01 -0.9183468E-09 -0.2766706E-08 -0.9976620E+02  0.8462487E-01  0.1405512E-06  0.2030300E-05 -0.1033845E-04  0.5443392E-07
  0.4300000E+01  0.5333316E-07 -0.4388658E-06  0.4000659E+02  0.1464983E+00 -0.9183468E-09 -0.2567843E-08 -0.9976620E+02 -0.4937711E+00  0.1405512E-06  0.1833660E-05 -0.1033845E-04 -0.9248658E-06
  0.4400000E+01  0.5333316E-07 -0.2923118E-06  0.4000659E+02  0.1680408E+00 -0.9183468E-09 -0.2325339E-08 -0.9976620E+02 -0.5659433E+00  0.1405512E-06  0.1331705E-05 -0.1033845E-04 -0.9494484E-06
  0.4500000E+01  0.5333316E-07 -0.7317250E-07  0.4000659E+02  0.3972520E-01 -0.9183468E-09 -0.2028927E-08 -0.9976620E+02 -0.9836023E-01  0.1405512E-06  0.6604222E-06 -0.1033845E-04 -0.3594699E-06
  0.4600000E+01  0.5333316E-07  0.1648389E-06  0.4000659E+02 -0.1181231E+00 -0.9183468E-09 -0.1661224E-08 -0.9976620E+02  0.4666580E+00  0.1405512E-06 -0.2131740E-07 -0.1033845E-04 -0.5805943E-07
  0.4700000E+01  0.5333316E-07  0.3624457E-06  0.4000659E+02 -0.1715830E+00 -0.9183468E-09 -0.1202968E-08 -0.9976620E+02  0.6435551E+00  0.1405512E-06 -0.5700313E-06 -0.1033845E-04 -0.5293916E-06
  0.4800000E+01  0.5333316E-07  0.4700053E-06  0.4000659E+02 -0.7832489E-01 -0.9183468E-09 -0.6381851E-09 -0.9976620E+02  0.2865711E+00  0.1405512E-06 -0.8890925E-06 -0.1033845E-04 -0.1427242E-05
  0.4900000E+01  0.5333316E-07  0.4607419E-06  0.4000659E+02  0.9077980E-01 -0.9183468E-09  0.4074968E-10 -0.9976620E+02 -0.3366977E+00  0.1405512E-06 -0.9468584E-06 -0.1033845E-04 -0.1969940E-05
  0.5000000E+01  0.5333316E-07  0.3383113E-06  0.4000659E+02  0.2111380E+00 -0.9183468E-09  0.8278565E-09 -0.9976620E+02 -0.7686589E+00  0.1405512E-06 -0.7783019E-06 -0.1033845E-04 -0.1603508E-05