VARIABLES="w (rad/s)"
"A   1   1" "B   1   1"
"A   1   2" "B   1   2"
"A   1   3" "B   1   3"
"A   1   4" "B   1   4"
"A   1   5" "B   1   5"
"A   1   6" "B   1   6"
Zone t="Motion of body    1 in DoF   1",I=  2986,F=POINT
  0.1500000E+00  0.8605746E+04  0.9638374E-01  0.0000000E+00  0.8640200E-11  0.1263370E-03  0.4195753E-05 -0.2918144E-06 -0.7162271E-11  0.2202659E+05  0.2462062E+00 -0.6305380E-03 -0.3059029E-08
  0.1600000E+00  0.8619845E+04  0.1174925E+00  0.2328306E-06  0.9094947E-11 -0.7171766E-04 -0.9782560E-05  0.2328306E-06  0.2125944E-10  0.2207302E+05  0.3006788E+00 -0.1187800E-02 -0.6475489E-08
  0.1700000E+00  0.8625036E+04  0.1411450E+00 -0.4382694E-07 -0.9094947E-11 -0.6793176E-06  0.8985774E-05 -0.2574833E-06  0.2728484E-11  0.2209051E+05  0.3610144E+00  0.4797612E-03 -0.2387765E-08
  0.1800000E+00  0.8629149E+04  0.1678537E+00  0.1655685E-06  0.3637979E-11  0.1816338E-03  0.8039928E-05  0.3621810E-06 -0.3819878E-10  0.2210530E+05  0.4293512E+00  0.4824729E-03  0.6955929E-09
  0.1900000E+00  0.8628042E+04  0.1974220E+00 -0.7842716E-07  0.3637979E-11 -0.8162797E-04 -0.1431818E-05  0.9803396E-07 -0.1614353E-10  0.2210006E+05  0.5051156E+00 -0.3802345E-03  0.6630785E-09
  0.2000000E+00  0.8626288E+04  0.2303024E+00 -0.3725290E-07  0.3637979E-11 -0.2827495E-04 -0.4882727E-05 -0.2142042E-06  0.5684342E-11  0.2209332E+05  0.5892648E+00 -0.3767433E-04  0.4946514E-08
  0.2100000E+00  0.8626242E+04  0.2671331E+00 -0.1419158E-06 -0.3637979E-11 -0.4592751E-04 -0.2408005E-05 -0.5987074E-06 -0.1091394E-10  0.2209276E+05  0.6833747E+00  0.1429591E-03  0.1212743E-07
  0.2200000E+00  0.8626567E+04  0.3078971E+00  0.1693314E-06 -0.1637090E-10  0.1359562E-03  0.8625680E-05  0.7027252E-06 -0.4911271E-10  0.2209387E+05  0.7881572E+00 -0.7984366E-03 -0.2175943E-07
  0.2300000E+00  0.8627774E+04  0.3528343E+00 -0.3239383E-07 -0.1818989E-10  0.8418346E-04  0.1126060E-04  0.4130213E-06 -0.3433342E-10  0.2209818E+05  0.9033478E+00  0.2566603E-03 -0.4112792E-08
  0.2400000E+00  0.8631117E+04  0.4016351E+00  0.9313226E-07  0.1091394E-10 -0.6830475E-04 -0.2854732E-05  0.3686485E-06  0.2614797E-10  0.2210969E+05  0.1028374E+01  0.3792617E-03  0.3023410E-07
  0.2500000E+00  0.8632164E+04  0.4547472E+00  0.0000000E+00  0.3637979E-11  0.8372962E-04  0.7234744E-05 -0.2048910E-06 -0.5229595E-11  0.2211203E+05  0.1164326E+01 -0.3293138E-03  0.2441050E-07
  0.2600000E+00  0.8632144E+04  0.5124514E+00 -0.5731216E-07  0.7275958E-11  0.3943793E-04  0.2478510E-05  0.2149206E-06 -0.1246008E-09  0.2211086E+05  0.1312293E+01 -0.6305305E-03  0.1878675E-08
  0.2700000E+00  0.8632332E+04  0.5754122E+00  0.1655685E-06 -0.3637979E-11 -0.2106858E-04 -0.8042898E-06  0.1103790E-06  0.8185452E-10  0.2211100E+05  0.1473679E+01 -0.2134729E-03 -0.1170031E-07
  0.2800000E+00  0.8633635E+04  0.6432939E+00 -0.2660922E-06 -0.1091394E-10 -0.8542889E-04 -0.2060961E-05  0.5654459E-07  0.1818989E-11  0.2211515E+05  0.1647616E+01 -0.7409070E-03 -0.3122238E-07
  0.2900000E+00  0.8634697E+04  0.7152162E+00  0.0000000E+00 -0.1818989E-10 -0.2629541E-04 -0.6388197E-05  0.3147228E-06  0.3637979E-11  0.2211858E+05  0.1832246E+01 -0.5425885E-03  0.1723424E-07
  0.3000000E+00  0.8635408E+04  0.7938067E+00 -0.1986821E-06  0.2546585E-10  0.6834045E-04  0.8910347E-05 -0.6208817E-07  0.5366019E-10  0.2212082E+05  0.2033726E+01 -0.8495772E-03 -0.5819675E-07
  0.3100000E+00  0.8636535E+04  0.8784395E+00  0.4806826E-07  0.1455192E-10 -0.6135313E-04 -0.9900041E-05  0.4386229E-06 -0.7730705E-11  0.2212454E+05  0.2250104E+01 -0.5838867E-03 -0.5271704E-07
  0.3200000E+00  0.8639197E+04  0.9680399E+00 -0.9313226E-07  0.0000000E+00 -0.5165348E-04 -0.3140533E-05  0.1164153E-07  0.1027729E-09  0.2213336E+05  0.2480751E+01 -0.1968181E-02  0.2264483E-07
  0.3300000E+00  0.8640440E+04  0.1065472E+01 -0.4515503E-07 -0.7275958E-11  0.6454348E-04  0.1436427E-04 -0.4797722E-06 -0.4547474E-11  0.2213643E+05  0.2730200E+01 -0.2003684E-03  0.6852133E-07
  0.3400000E+00  0.8641840E+04  0.1167740E+01  0.0000000E+00 -0.7275958E-11 -0.8519410E-04 -0.8300607E-05  0.1260025E-06 -0.1182343E-09  0.2213988E+05  0.2992855E+01  0.5481669E-03 -0.1756659E-06
  0.3500000E+00  0.8641879E+04  0.1276943E+01 -0.1702990E-06  0.0000000E+00  0.9994954E-04  0.1089405E-04 -0.1596553E-06  0.9003998E-10  0.2213953E+05  0.3273315E+01  0.4279281E-03 -0.6466985E-07
  0.3600000E+00  0.8642545E+04  0.1392302E+01 -0.1655685E-06 -0.4365575E-10  0.1786380E-03  0.2829664E-04  0.4811833E-06 -0.5729817E-10  0.2214116E+05  0.3569475E+01 -0.6687025E-03 -0.1516678E-06
  0.3700000E+00  0.8643983E+04  0.1516808E+01  0.0000000E+00  0.2910383E-10  0.5606562E-04  0.2991954E-05  0.4933493E-06  0.1109583E-09  0.2214562E+05  0.3888906E+01 -0.6121319E-03 -0.9086648E-07
  0.3800000E+00  0.8645028E+04  0.1647497E+01  0.3921358E-07  0.1455192E-10  0.6446223E-04  0.3024005E-05  0.9166175E-06  0.1318767E-09  0.2214860E+05  0.4224467E+01  0.6328545E-03  0.6626306E-07
  0.3900000E+00  0.8645870E+04  0.1786637E+01 -0.7641621E-07  0.1309672E-09  0.2217694E-03  0.2173167E-04  0.1002963E-06 -0.1091394E-10  0.2215120E+05  0.4581810E+01 -0.3282697E-03  0.2982370E-07
  0.4000000E+00  0.8647031E+04  0.1934425E+01  0.2235174E-06 -0.7275958E-10  0.1637219E-03  0.2309433E-04 -0.2561137E-06  0.1364242E-10  0.2215475E+05  0.4962589E+01  0.9645126E-04  0.1731223E-06
  0.4100000E+00  0.8648890E+04  0.2088944E+01  0.7268859E-07  0.7275958E-10  0.6818190E-04  0.4845590E-05 -0.7223429E-06 -0.1818989E-10  0.2216077E+05  0.5359802E+01 -0.1063898E-02  0.1846042E-06
  0.4200000E+00  0.8651651E+04  0.2253152E+01 -0.1419158E-06 -0.4365575E-10 -0.4152812E-04  0.3623372E-06  0.4745310E-06 -0.8185452E-10  0.2216977E+05  0.5782188E+01 -0.3558129E-03  0.5357560E-07
  0.4300000E+00  0.8653638E+04  0.2426516E+01  0.2079232E-06  0.1455192E-10  0.4461685E-04  0.5784577E-05  0.7623850E-06  0.2892193E-09  0.2217577E+05  0.6228152E+01 -0.6687145E-03 -0.3534269E-06
  0.4400000E+00  0.8655388E+04  0.2608368E+01 -0.3386628E-07 -0.2910383E-10  0.1000325E-04 -0.4895872E-05 -0.7958575E-06 -0.6730261E-10  0.2218047E+05  0.6695572E+01 -0.4093311E-03 -0.5507900E-07
  0.4500000E+00  0.8656964E+04  0.2801192E+01 -0.9934108E-07 -0.1455192E-09 -0.1269206E-03 -0.8704823E-05 -0.2524919E-06 -0.1873559E-09  0.2218470E+05  0.7191706E+01  0.6669470E-03 -0.3148061E-06
  0.4600000E+00  0.8657878E+04  0.3003227E+01  0.6478766E-07  0.1455192E-10  0.2360295E-04  0.7503799E-05  0.7126642E-06 -0.2728484E-10  0.2218711E+05  0.7711129E+01  0.1288888E-02 -0.1960670E-06
  0.4700000E+00  0.8658940E+04  0.3215002E+01  0.0000000E+00 -0.1309672E-09  0.1067811E-03  0.2032095E-04 -0.1664491E-06  0.2128218E-09  0.2218998E+05  0.8256181E+01  0.7405045E-03  0.7432118E-07
  0.4800000E+00  0.8659641E+04  0.3436807E+01  0.1241764E-06  0.2910383E-10 -0.2818027E-04  0.5779002E-06  0.9002785E-06  0.2546585E-10  0.2219163E+05  0.8826850E+01  0.8986293E-04  0.4694630E-07
  0.4900000E+00  0.8661262E+04  0.3671262E+01  0.6082107E-07  0.2910383E-10  0.9146348E-04  0.2531151E-04 -0.1444500E-06 -0.2601155E-09  0.2219654E+05  0.9430791E+01  0.5082740E-04 -0.3372188E-06
  0.5000000E+00  0.8662776E+04  0.3915759E+01 -0.5960464E-07 -0.5820766E-10  0.1850091E-03  0.3445711E-04 -0.1862645E-07  0.5893526E-09  0.2220095E+05  0.1006060E+02  0.4230067E-05  0.3830783E-06
  0.5100000E+00  0.8663958E+04  0.4171154E+01  0.0000000E+00 -0.2910383E-10  0.5857836E-04  0.1006425E-04 -0.2045257E-06  0.3637979E-11  0.2220444E+05  0.1071876E+02  0.2374270E-03  0.7148992E-07
  0.5200000E+00  0.8665607E+04  0.4441007E+01  0.0000000E+00  0.1746230E-09  0.1087140E-04  0.8517964E-06  0.7164020E-07 -0.3637979E-11  0.2220943E+05  0.1141442E+02  0.3342284E-03 -0.1272629E-06
  0.5300000E+00  0.8667423E+04  0.4721073E+01 -0.1124616E-06 -0.2910383E-10  0.9252778E-04  0.2768896E-04  0.2178944E-06  0.4511094E-09  0.2221505E+05  0.1213604E+02  0.5913688E-03 -0.4592812E-06
  0.5400000E+00  0.8669573E+04  0.5017382E+01  0.1103790E-06  0.0000000E+00  0.1295677E-03  0.2644280E-04 -0.5863883E-07  0.5311449E-09  0.2222179E+05  0.1290019E+02 -0.9199915E-03 -0.1409589E-06
  0.5500000E+00  0.8672248E+04  0.5325500E+01 -0.1625581E-06 -0.2910383E-10  0.1170012E-03  0.3962233E-04 -0.2743168E-06  0.5820766E-10  0.2223026E+05  0.1369697E+02 -0.1431072E-02 -0.2340594E-06
  0.5600000E+00  0.8675188E+04  0.5647947E+01  0.2128737E-06 -0.1746230E-09  0.1030375E-03  0.2650701E-04  0.3625506E-06 -0.1455192E-09  0.2223947E+05  0.1452893E+02  0.2141427E-03 -0.1371263E-06
  0.5700001E+00  0.8677344E+04  0.5984626E+01 -0.1045695E-06  0.2910383E-10  0.1356005E-03  0.4971632E-04  0.2287459E-07  0.1418812E-09  0.2224558E+05  0.1539865E+02 -0.5361639E-03  0.1577355E-06
  0.5800000E+00  0.8679277E+04  0.6335455E+01 -0.1027666E-06  0.1746230E-09  0.1696806E-03  0.5285889E-04  0.2826082E-06  0.7057679E-09  0.2225078E+05  0.1630486E+02 -0.1300478E-02 -0.2727647E-06
  0.5900000E+00  0.8680844E+04  0.6699965E+01  0.5051241E-07 -0.5820766E-10  0.1509627E-03  0.3295428E-04 -0.5966779E-06  0.1346052E-09  0.2225479E+05  0.1724632E+02 -0.2014560E-02 -0.1585431E-07
  0.6000000E+00  0.8682329E+04  0.7082568E+01  0.4967054E-07  0.1746230E-09  0.1923305E-03  0.6433258E-04  0.4035731E-06 -0.2291927E-09  0.2225900E+05  0.1823305E+02  0.3794208E-03  0.2990128E-06
  0.6100000E+00  0.8683297E+04  0.7478286E+01  0.0000000E+00 -0.1164153E-09  0.9904997E-04  0.5669823E-04  0.4519204E-06 -0.7275958E-11  0.2226144E+05  0.1925663E+02  0.3864195E-03  0.7040198E-06
  0.6200000E+00  0.8685810E+04  0.7892104E+01  0.4806826E-07  0.1164153E-09  0.1026197E-03  0.5149036E-04  0.1021451E-06  0.7639755E-10  0.2226888E+05  0.2032724E+02 -0.6858560E-03  0.9055093E-06
  0.6300000E+00  0.8687521E+04  0.8323660E+01  0.0000000E+00  0.2910383E-09  0.9995604E-04  0.3485515E-04  0.1419158E-06 -0.5238689E-09  0.2227388E+05  0.2144327E+02 -0.8079460E-03  0.4179346E-06
  0.6400000E+00  0.8689736E+04  0.8773605E+01  0.0000000E+00  0.2910383E-09  0.1125387E-03  0.5330169E-04 -0.3841706E-06  0.9458745E-10  0.2228055E+05  0.2260674E+02 -0.1773673E-02  0.4667472E-06
  0.6500000E+00  0.8692129E+04  0.9238490E+01  0.4584973E-07  0.2328306E-09 -0.1483239E-04  0.1769445E-04  0.1604740E-06 -0.7130438E-09  0.2228775E+05  0.2381019E+02 -0.6296959E-03  0.1425869E-06
  0.6600000E+00  0.8694110E+04  0.9726174E+01  0.0000000E+00 -0.2910383E-09  0.1913444E-04  0.2535347E-04  0.2144864E-06 -0.9458745E-10  0.2229369E+05  0.2507251E+02 -0.1248280E-02 -0.1459230E-05
  0.6700001E+00  0.8696241E+04  0.1022822E+02  0.1334432E-06  0.2328306E-09  0.5782540E-04  0.3464343E-04 -0.6672161E-07  0.1600711E-08  0.2230011E+05  0.2637399E+02 -0.1346905E-02 -0.1289736E-06
  0.6800001E+00  0.8698472E+04  0.1075230E+02  0.0000000E+00 -0.1746230E-09  0.6679773E-04  0.3055903E-04 -0.1260024E-06  0.5820766E-10  0.2230683E+05  0.2773216E+02 -0.7504473E-03 -0.7369472E-06
  0.6900001E+00  0.8700929E+04  0.1129753E+02  0.2591506E-06 -0.5820766E-10  0.1212771E-03  0.6412973E-04 -0.9178250E-07  0.5820766E-10  0.2231432E+05  0.2914733E+02  0.5718576E-03 -0.1465492E-05
  0.7000000E+00  0.8703625E+04  0.1186295E+02  0.0000000E+00 -0.1746230E-09  0.4105802E-04  0.5028046E-04 -0.5321843E-06  0.6330083E-09  0.2232267E+05  0.3061457E+02 -0.5300756E-03 -0.1369322E-05
  0.7100000E+00  0.8706517E+04  0.1245385E+02  0.3777759E-06 -0.5820766E-10  0.6633116E-04  0.4971273E-04  0.5666639E-06  0.1309672E-09  0.2233162E+05  0.3214698E+02  0.6182802E-04 -0.8937168E-06
  0.7200000E+00  0.8709801E+04  0.1306677E+02  0.0000000E+00  0.2910383E-09  0.9286838E-04  0.7536531E-04 -0.4035731E-06 -0.4292815E-09  0.2234181E+05  0.3374089E+02 -0.6264774E-03  0.1102006E-05
  0.7300000E+00  0.8712568E+04  0.1370316E+02  0.4082510E-07  0.0000000E+00  0.6210518E-05  0.2081651E-04 -0.3623227E-06  0.3099558E-08  0.2235008E+05  0.3539560E+02 -0.1213973E-03  0.7913477E-06
  0.7400000E+00  0.8714920E+04  0.1436274E+02  0.1208202E-06 -0.2328306E-09  0.1339947E-03  0.6526348E-04  0.2114354E-06  0.6330083E-09  0.2235666E+05  0.3710870E+02 -0.1106999E-02  0.2839079E-07
  0.7500000E+00  0.8717695E+04  0.1504979E+02 -0.3973643E-07  0.2328306E-09  0.1096626E-03  0.5794473E-04 -0.2781550E-06  0.7203198E-09  0.2236453E+05  0.3889445E+02 -0.1363320E-03  0.1718890E-05
  0.7600000E+00  0.8720428E+04  0.1575896E+02 -0.1176408E-06  0.2328306E-09  0.5398240E-04  0.4697383E-04 -0.1372475E-06 -0.5602487E-09  0.2237205E+05  0.4073820E+02 -0.6034211E-03  0.4071953E-06
  0.7700000E+00  0.8722493E+04  0.1649554E+02  0.1161130E-06  0.0000000E+00  0.1337718E-03  0.6352230E-04 -0.1209510E-06  0.1469743E-08  0.2237788E+05  0.4265631E+02 -0.4934184E-03 -0.7848139E-06
  0.7800000E+00  0.8724775E+04  0.1725862E+02 -0.7641621E-07  0.4656613E-09 -0.6270905E-05  0.3809348E-04 -0.4776013E-08  0.4947651E-09  0.2238450E+05  0.4464175E+02  0.1014986E-03  0.7822891E-06
  0.7900000E+00  0.8727189E+04  0.1805201E+02 -0.7544892E-07  0.2328306E-09  0.4920684E-04  0.5387884E-04  0.3442357E-06  0.4074536E-09  0.2239151E+05  0.4670547E+02 -0.2319783E-03  0.7042254E-06
  0.8000000E+00  0.8729760E+04  0.1887028E+02 -0.1862645E-06 -0.1164153E-09  0.1220964E-04  0.5003586E-04 -0.4423782E-06 -0.1164153E-08  0.2239899E+05  0.4883739E+02 -0.1617051E-02 -0.4783651E-06
  0.8099999E+00  0.8732418E+04  0.1972100E+02 -0.1471720E-06  0.0000000E+00 -0.1298333E-04  0.4517022E-04 -0.4047230E-06 -0.5820766E-09  0.2240683E+05  0.5105133E+02 -0.5641159E-03 -0.3129240E-05
  0.8200001E+00  0.8734865E+04  0.2059730E+02 -0.7268858E-07  0.2328306E-09  0.1892947E-03  0.1053051E-03 -0.1817214E-07  0.3346941E-09  0.2241404E+05  0.5333681E+02 -0.1341977E-02 -0.1107685E-05
  0.8300000E+00  0.8737734E+04  0.2151189E+02  0.0000000E+00  0.2328306E-09 -0.2607703E-05  0.3334702E-04 -0.4039471E-07  0.7275958E-09  0.2242266E+05  0.5572054E+02 -0.8759313E-03 -0.1420820E-05
  0.8400000E+00  0.8740880E+04  0.2245679E+02  0.0000000E+00  0.0000000E+00  0.8926949E-04  0.7537156E-04  0.1064369E-06  0.4802132E-09  0.2243210E+05  0.5818726E+02 -0.6703848E-03 -0.3187492E-05
  0.8500000E+00  0.8743812E+04  0.2342992E+02  0.1753078E-06  0.1164153E-09  0.1125125E-03  0.7533704E-04 -0.5741330E-06 -0.1571607E-08  0.2244093E+05  0.6072949E+02  0.2022285E-03 -0.1208973E-05
  0.8600000E+00  0.8746458E+04  0.2443961E+02  0.6930772E-07  0.0000000E+00  0.1449918E-03  0.6333855E-04 -0.5847839E-06  0.8149073E-09  0.2244881E+05  0.6336310E+02 -0.1155836E-03 -0.1005261E-05
  0.8700000E+00  0.8749342E+04  0.2548473E+02  0.1027666E-06 -0.3492460E-09  0.1219669E-03  0.4140938E-04  0.9420274E-07 -0.2633897E-08  0.2245747E+05  0.6609610E+02  0.6761937E-03  0.2262277E-05
  0.8800000E+00  0.8752531E+04  0.2656739E+02  0.6773255E-07 -0.4656613E-09  0.1112507E-04  0.2774688E-04  0.4656613E-07  0.4656613E-09  0.2246707E+05  0.6892728E+02 -0.1128996E-03 -0.1942390E-06
  0.8900001E+00  0.8755217E+04  0.2769344E+02 -0.3348575E-07  0.4656613E-09  0.5937024E-04  0.6081213E-04 -0.4018290E-06 -0.2633897E-08  0.2247494E+05  0.7187102E+02  0.3107247E-03 -0.1345288E-05
  0.9000000E+00  0.8758573E+04  0.2885499E+02  0.6622739E-07 -0.4656613E-09  0.1084598E-03  0.8496664E-04  0.3352761E-06 -0.4074536E-09  0.2248522E+05  0.7491626E+02 -0.2596114E-04  0.3616733E-06
  0.9100001E+00  0.8762276E+04  0.3005917E+02 -0.6549961E-07  0.2328306E-09  0.1288787E-03  0.1024605E-03  0.9415568E-07  0.1324224E-08  0.2249658E+05  0.7807367E+02 -0.2577430E-03  0.1251101E-05
  0.9200000E+00  0.8766271E+04  0.3130870E+02 -0.3239383E-07  0.4656613E-09  0.3084702E-04  0.5067603E-04 -0.6519258E-06 -0.8149073E-09  0.2250884E+05  0.8135046E+02  0.7287498E-03 -0.8914139E-06
  0.9300001E+00  0.8770505E+04  0.3260390E+02 -0.1281820E-06  0.2328306E-09  0.5963268E-04  0.4863366E-04 -0.3525005E-06  0.5966285E-09  0.2252189E+05  0.8475176E+02  0.4117987E-03  0.4526737E-06
  0.9400001E+00  0.8774023E+04  0.3393830E+02 -0.1268184E-06  0.0000000E+00  0.1402334E-03  0.7661773E-04 -0.7727995E-06 -0.7566996E-09  0.2253228E+05  0.8825397E+02 -0.4609055E-05  0.5815236E-06
  0.9500000E+00  0.8777545E+04  0.3532203E+02  0.1254835E-06 -0.2328306E-09  0.8146230E-04  0.6711954E-04 -0.1176408E-06 -0.3085006E-08  0.2254247E+05  0.9188886E+02  0.4429939E-03  0.3213790E-06
  0.9600000E+00  0.8781283E+04  0.3675752E+02 -0.6208818E-07 -0.4656613E-09  0.7218526E-04  0.5995278E-04 -0.5626741E-06 -0.3550667E-08  0.2255327E+05  0.9566042E+02 -0.4427275E-04 -0.5388647E-06
  0.9700000E+00  0.8785260E+04  0.3824172E+02  0.0000000E+00 -0.2561137E-08  0.5748084E-04  0.9319573E-04  0.4032531E-06  0.4481990E-08  0.2256471E+05  0.9955913E+02  0.1032608E-02 -0.1933353E-05
  0.9800000E+00  0.8788517E+04  0.3977126E+02  0.1824632E-06  0.6984919E-09  0.1462366E-03  0.7521058E-04 -0.1824632E-06  0.2648449E-08  0.2257410E+05  0.1035810E+03  0.6249193E-03 -0.3307105E-05
  0.9900000E+00  0.8791746E+04  0.4135094E+02  0.0000000E+00 -0.1862645E-08  0.1076534E-03  0.6497168E-04 -0.2822190E-06  0.1280569E-08  0.2258360E+05  0.1077348E+03 -0.2992800E-03 -0.3462337E-05
  0.1000000E+01  0.8794764E+04  0.4298827E+02  0.1192093E-06  0.2328306E-09 -0.4149601E-04  0.2350454E-04 -0.2644956E-06 -0.8149073E-09  0.2259235E+05  0.1120413E+03  0.2080090E-03  0.2909073E-06
  0.1010000E+01  0.8798079E+04  0.4467627E+02  0.1180290E-06 -0.6984919E-09 -0.7126001E-05  0.4114234E-04 -0.5901450E-07  0.2328306E-09  0.2260203E+05  0.1164850E+03  0.5186600E-03  0.1831766E-05
  0.1020000E+01  0.8801442E+04  0.4642592E+02  0.1168719E-06  0.0000000E+00  0.6265427E-04  0.5613608E-04  0.2921796E-07  0.4947651E-09  0.2261182E+05  0.1210910E+03 -0.1172334E-03 -0.3976907E-05
  0.1030000E+01  0.8806091E+04  0.4823822E+02 -0.1157372E-06  0.2328306E-09  0.9819576E-04  0.6769001E-04  0.9403646E-07  0.3492460E-09  0.2262598E+05  0.1258696E+03 -0.1004743E-03  0.4699832E-05
  0.1040000E+01  0.8809784E+04  0.5009553E+02  0.1146243E-06  0.0000000E+00  0.8425962E-04  0.9784685E-04 -0.5695396E-06 -0.2328306E-09  0.2263708E+05  0.1307670E+03  0.6124771E-03  0.5279144E-06
  0.1050000E+01  0.8813605E+04  0.5202240E+02  0.5676633E-07 -0.1396984E-08  0.1046736E-03  0.2672133E-04  0.3902685E-07  0.3201421E-09  0.2264853E+05  0.1358519E+03  0.1116612E-03  0.3216672E-05
  0.1060000E+01  0.8817644E+04  0.5401762E+02  0.1686924E-06  0.1862645E-08  0.1591086E-03  0.6742048E-04 -0.8434620E-07 -0.1571607E-08  0.2266070E+05  0.1411203E+03  0.7662659E-03  0.2651796E-05
  0.1070000E+01  0.8821917E+04  0.5607267E+02  0.1114105E-06  0.0000000E+00 -0.7248649E-05  0.3108950E-04 -0.5779422E-06  0.7858034E-09  0.2267357E+05  0.1465477E+03 -0.1035401E-02  0.1875451E-06
  0.1080000E+01  0.8824962E+04  0.5818225E+02 -0.5518948E-07 -0.1396984E-08  0.4022279E-04  0.6222058E-04  0.0000000E+00  0.1775334E-08  0.2268243E+05  0.1521222E+03 -0.5124499E-03  0.2189976E-05
  0.1090000E+01  0.8828671E+04  0.6037173E+02  0.5468316E-07  0.4656613E-09  0.5368861E-04  0.9631290E-04 -0.1196194E-06  0.1309672E-08  0.2269354E+05  0.1579127E+03 -0.4889341E-03  0.3968307E-07
  0.1100000E+01  0.8832610E+04  0.6263040E+02  0.2167442E-06  0.1396984E-08  0.7260591E-04  0.5693271E-04  0.3386628E-07 -0.6752089E-08  0.2270542E+05  0.1638909E+03 -0.5996092E-03  0.3116031E-05
  0.1110000E+01  0.8836636E+04  0.6496843E+02  0.5369788E-07  0.4656613E-09  0.2266050E-04 -0.1581328E-05 -0.3356117E-06  0.2095476E-08  0.2271749E+05  0.1700864E+03 -0.8091918E-03  0.3457404E-05
  0.1120000E+01  0.8840600E+04  0.6738770E+02  0.1596553E-06  0.0000000E+00  0.8492331E-04  0.7824088E-04 -0.4224213E-06 -0.1688022E-08  0.2272933E+05  0.1764986E+03 -0.7279832E-03  0.6990391E-05
  0.1130000E+01  0.8844953E+04  0.6988571E+02 -0.5274747E-07 -0.4656613E-09  0.1342028E-03  0.9083160E-04  0.1945063E-06  0.6402843E-09  0.2274253E+05  0.1831287E+03 -0.1030755E-02  0.1496082E-06
  0.1140000E+01  0.8849635E+04  0.7247208E+02 -0.1568543E-06  0.3259629E-08  0.1024978E-03  0.8471950E-04 -0.6208817E-07  0.2095476E-08  0.2275686E+05  0.1900011E+03 -0.5680496E-03  0.8856980E-05
  0.1150000E+01  0.8854626E+04  0.7514674E+02 -0.1554904E-06  0.1396984E-08 -0.3626165E-04 -0.9944953E-05 -0.9718149E-07 -0.7974450E-08  0.2277217E+05  0.1971154E+03 -0.2217131E-03 -0.1053570E-04
  0.1160000E+01  0.8859939E+04  0.7792612E+02  0.5138332E-07 -0.9313226E-09 -0.1224208E-04 -0.2633734E-04  0.4913530E-06  0.9313226E-09  0.2278851E+05  0.2045122E+03 -0.6073010E-03 -0.6550108E-06
  0.1170000E+01  0.8865588E+04  0.8079137E+02 -0.1018883E-06 -0.4656613E-09  0.4176146E-04 -0.4753628E-04 -0.2515367E-06  0.2095476E-08  0.2280591E+05  0.2121506E+03 -0.1917028E-02 -0.1011552E-04
  0.1180000E+01  0.8870672E+04  0.8374509E+02  0.2525621E-06  0.1862645E-08 -0.1236481E-03 -0.4038197E-04 -0.2209918E-06 -0.2502929E-08  0.2282118E+05  0.2200202E+03  0.1326582E-03 -0.2679648E-05
  0.1190000E+01  0.8875132E+04  0.8680518E+02  0.5008793E-07 -0.1862645E-08 -0.5852775E-04 -0.4371622E-04  0.1690468E-06 -0.8265488E-08  0.2283414E+05  0.2281739E+03  0.1340134E-03 -0.1287874E-04
  0.1200000E+01  0.8880031E+04  0.8996346E+02  0.9934107E-07 -0.9313226E-09 -0.1531715E-04 -0.3404706E-04  0.8071462E-06  0.9895302E-09  0.2284847E+05  0.2365944E+03 -0.1462954E-02  0.7610652E-05
  0.1210000E+01  0.8885264E+04  0.9323667E+02  0.4926003E-07  0.2328306E-08  0.8590335E-04  0.5400297E-04  0.6342229E-06 -0.1105946E-08  0.2286372E+05  0.2453259E+03 -0.4538404E-03  0.6343384E-05
  0.1220000E+01  0.8890757E+04  0.9662549E+02  0.0000000E+00  0.9313226E-09 -0.4172325E-04 -0.2457801E-04 -0.5496330E-06  0.1117587E-07  0.2287971E+05  0.2543717E+03 -0.1455872E-02  0.1937005E-05
  0.1230000E+01  0.8895148E+04  0.1000846E+03 -0.1453772E-06  0.9313226E-09 -0.3792527E-04 -0.9538722E-05 -0.6057383E-07 -0.8672941E-08  0.2289276E+05  0.2636099E+03 -0.1024349E-02 -0.9215699E-05
  0.1240000E+01  0.8899619E+04  0.1036617E+03 -0.9613652E-07 -0.9313226E-09 -0.5727934E-04 -0.3345875E-04 -0.7210240E-07  0.1088483E-07  0.2290608E+05  0.2731679E+03 -0.1903251E-02  0.5849666E-05
  0.1250000E+01  0.8904233E+04  0.1073711E+03  0.9536743E-07  0.0000000E+00 -0.3861785E-04 -0.3168877E-04  0.1311302E-06  0.4074536E-09  0.2291983E+05  0.2830873E+03 -0.1158239E-02  0.9635376E-05
  0.1260000E+01  0.8909009E+04  0.1112006E+03  0.9461055E-07 -0.9313226E-09 -0.1118297E-03 -0.7140497E-04 -0.1005237E-06 -0.9662472E-08  0.2293406E+05  0.2933290E+03 -0.4407299E-03  0.5062902E-05
  0.1270000E+01  0.8913862E+04  0.1151582E+03 -0.4693279E-07  0.0000000E+00  0.1753761E-03  0.4249229E-04  0.1349318E-06  0.4132744E-08  0.2294849E+05  0.3039184E+03  0.8961083E-04  0.4999340E-05
  0.1280000E+01  0.8918355E+04  0.1192114E+03  0.4656613E-07  0.5587935E-08 -0.8181087E-04 -0.7155840E-04 -0.6810296E-06  0.0000000E+00  0.2296161E+05  0.3147709E+03 -0.8057774E-03  0.2981542E-05
  0.1290000E+01  0.8923190E+04  0.1233837E+03  0.9241030E-07 -0.2793968E-08 -0.1745977E-04 -0.2952479E-04  0.4042951E-07 -0.7566996E-09  0.2297626E+05  0.3259532E+03 -0.2905683E-03 -0.1543260E-05
  0.1300000E+01  0.8928364E+04  0.1277014E+03 -0.1833989E-06  0.1862645E-08 -0.5520881E-04 -0.6499863E-04 -0.6762835E-06  0.5005859E-08  0.2299196E+05  0.3375368E+03 -0.1195784E-02 -0.8319854E-05
  0.1310000E+01  0.8933841E+04  0.1321812E+03 -0.1819989E-06  0.2793968E-08 -0.1454854E-04 -0.4656031E-04 -0.3184981E-06  0.4947651E-08  0.2300862E+05  0.3495616E+03  0.2528349E-03  0.5387323E-05
  0.1320000E+01  0.8939469E+04  0.1367954E+03 -0.2257752E-06  0.1862645E-08 -0.1346805E-03 -0.1747889E-03  0.5757267E-06  0.5762558E-08  0.2302575E+05  0.3619581E+03 -0.7536403E-03  0.1022237E-04
  0.1330000E+01  0.8944821E+04  0.1415466E+03  0.0000000E+00  0.9313226E-09 -0.6604687E-04 -0.7046777E-04  0.5601940E-06  0.7275958E-08  0.2304186E+05  0.3747314E+03  0.1072911E-03  0.9513897E-05
  0.1340000E+01  0.8949904E+04  0.1464293E+03  0.4448108E-07  0.0000000E+00 -0.7491725E-04 -0.9024219E-04  0.4948520E-06 -0.3492460E-09  0.2305734E+05  0.3878749E+03 -0.3698880E-04  0.5528913E-05
  0.1350000E+01  0.8954898E+04  0.1514520E+03  0.8830317E-07  0.2793968E-08  0.1829531E-04 -0.4950084E-04 -0.9934107E-07  0.2328306E-09  0.2307248E+05  0.4013993E+03 -0.6221014E-03 -0.1645036E-04
  0.1360000E+01  0.8960148E+04  0.1566483E+03  0.1753078E-06  0.2793968E-08 -0.4185473E-05 -0.4309171E-04  0.3889641E-06 -0.2444722E-07  0.2308846E+05  0.4154079E+03 -0.2158148E-03 -0.1851356E-04
  0.1370000E+01  0.8965742E+04  0.1620220E+03 -0.2610422E-06  0.1862645E-08 -0.1988816E-04 -0.1186131E-03  0.4405088E-06 -0.1245644E-07  0.2310549E+05  0.4299081E+03 -0.7442206E-03 -0.2317273E-04
  0.1380000E+01  0.8971470E+04  0.1675840E+03 -0.8638354E-07 -0.2793968E-08  0.1349743E-05 -0.7506157E-04  0.2969434E-06  0.1827721E-07  0.2312297E+05  0.4449273E+03 -0.7170212E-03  0.1028180E-04
  0.1390000E+01  0.8977221E+04  0.1733231E+03 -0.1286431E-06  0.9313226E-09 -0.9861567E-04 -0.9658560E-04  0.1002344E-05 -0.2479646E-07  0.2314068E+05  0.4604441E+03 -0.1950632E-03  0.4724541E-05
  0.1400000E+01  0.8983407E+04  0.1792342E+03 -0.4257475E-07 -0.2793968E-08 -0.7817788E-05 -0.8747645E-04 -0.2128737E-07 -0.5122274E-08  0.2315982E+05  0.4764503E+03  0.1720233E-03 -0.4894915E-05
  0.1410000E+01  0.8989631E+04  0.1853338E+03  0.2536368E-06  0.9313226E-09 -0.6632602E-04 -0.6929412E-04  0.8454560E-07 -0.1012813E-07  0.2317904E+05  0.4929851E+03  0.8936338E-04  0.1447304E-04
  0.1420000E+01  0.8996688E+04  0.1916787E+03 -0.2098755E-06  0.1862645E-08  0.6894410E-05  0.4105037E-05  0.8972178E-06  0.4773028E-08  0.2320095E+05  0.5102083E+03 -0.9557167E-03 -0.2904912E-05
  0.1430000E+01  0.9004018E+04  0.1982369E+03 -0.8336314E-07  0.0000000E+00 -0.5882312E-04 -0.9200373E-04 -0.1354651E-06  0.4190952E-08  0.2322372E+05  0.5280219E+03 -0.1023676E-02 -0.8974515E-05
  0.1440000E+01  0.9011562E+04  0.2049969E+03 -0.2069606E-06 -0.3725290E-08 -0.1286363E-03 -0.1508219E-03  0.3621810E-07 -0.1327135E-07  0.2324715E+05  0.5464042E+03 -0.1638662E-03  0.1080375E-04
  0.1450000E+01  0.9017849E+04  0.2119400E+03  0.4110665E-07  0.3725290E-08 -0.1294037E-03 -0.1527386E-03  0.3442682E-06 -0.1094304E-07  0.2326599E+05  0.5652755E+03 -0.7230377E-03 -0.3757828E-05
  0.1460000E+01  0.9024145E+04  0.2191205E+03 -0.8165020E-07  0.1862645E-08 -0.1191583E-04 -0.4517718E-04  0.5613451E-07  0.1816079E-07  0.2328472E+05  0.5847897E+03 -0.1201800E-02  0.1243257E-04
  0.1470000E+01  0.9030686E+04  0.2265405E+03  0.0000000E+00  0.0000000E+00 -0.1250734E-03 -0.9294623E-04  0.6943739E-06 -0.9778887E-08  0.2330409E+05  0.6049773E+03 -0.5077672E-03 -0.2368528E-05
  0.1480000E+01  0.9037684E+04  0.2342401E+03 -0.8054682E-07 -0.3725290E-08 -0.2050722E-03 -0.1946874E-03 -0.3725290E-06  0.9313226E-08  0.2332478E+05  0.6259333E+03 -0.9301773E-03 -0.6060116E-05
  0.1490000E+01  0.9045074E+04  0.2421433E+03 -0.1200093E-06 -0.7450581E-08 -0.1383858E-03 -0.1691243E-03  0.5300413E-06  0.3469177E-07  0.2334662E+05  0.6474708E+03 -0.2616704E-03  0.9238371E-05
  0.1500000E+01  0.9049964E+04  0.2501463E+03  0.2384186E-06 -0.1862645E-08 -0.2316634E-04 -0.1037276E-03  0.3526608E-06  0.2223533E-07  0.2336113E+05  0.6692726E+03 -0.4706507E-03 -0.1615682E-04
  0.1510000E+01  0.9055431E+04  0.2584514E+03 -0.3947327E-07  0.0000000E+00 -0.5952076E-04 -0.1194582E-03  0.1924322E-06 -0.2107117E-07  0.2337758E+05  0.6919306E+03 -0.1237142E-02 -0.2744491E-06
  0.1520000E+01  0.9061390E+04  0.2670471E+03 -0.3921358E-07  0.0000000E+00 -0.9025006E-04 -0.7681502E-04  0.4166443E-06 -0.1629815E-08  0.2339570E+05  0.7153992E+03 -0.1069055E-02 -0.3160501E-05
  0.1530000E+01  0.9067448E+04  0.2759167E+03  0.0000000E+00 -0.7450581E-08 -0.1137261E-03 -0.1392772E-03 -0.1115152E-05 -0.3527384E-07  0.2341409E+05  0.7396310E+03 -0.1132050E-03 -0.9960786E-05
  0.1540000E+01  0.9073625E+04  0.2850897E+03 -0.3870431E-07  0.0000000E+00 -0.1030357E-03 -0.1341930E-03  0.3289867E-06 -0.1722947E-07  0.2343272E+05  0.7647043E+03  0.3963878E-03  0.9561831E-05
  0.1550000E+01  0.9079613E+04  0.2944105E+03  0.7690922E-07  0.0000000E+00 -0.1938064E-03 -0.1980785E-03  0.2403413E-07 -0.3050081E-07  0.2345076E+05  0.7901940E+03 -0.1149423E-02 -0.1674372E-04
  0.1560000E+01  0.9085835E+04  0.3040122E+03 -0.2674568E-06 -0.3725290E-08 -0.5352001E-04 -0.1479932E-03 -0.5874496E-06  0.3271271E-07  0.2346986E+05  0.8164954E+03 -0.6985170E-03 -0.1521525E-04
  0.1570000E+01  0.9092278E+04  0.3138777E+03 -0.7592948E-07  0.1862645E-08 -0.9248211E-04 -0.1194512E-03  0.6833653E-06 -0.1734588E-07  0.2348986E+05  0.8435562E+03 -0.1632675E-02 -0.3558467E-05
  0.1580000E+01  0.9098728E+04  0.3240647E+03 -0.1508978E-06  0.1117587E-07 -0.6884713E-04 -0.6138906E-04  0.1886223E-07 -0.6984919E-08  0.2350985E+05  0.8715162E+03 -0.8225700E-03 -0.2498226E-04
  0.1590000E+01  0.9105353E+04  0.3345870E+03  0.3748720E-07  0.3725290E-08 -0.4322274E-04 -0.2602441E-04 -0.6091670E-07 -0.9080395E-08  0.2353020E+05  0.9003970E+03 -0.1614401E-02 -0.2714992E-04
  0.1600000E+01  0.9112621E+04  0.3454746E+03  0.1490116E-06 -0.3725290E-08 -0.5632173E-04 -0.3464590E-04  0.2980232E-06 -0.6053597E-08  0.2355277E+05  0.9303359E+03 -0.1058379E-02 -0.1187262E-04
  0.1610000E+01  0.9120085E+04  0.3566440E+03  0.7404304E-07  0.5587935E-08  0.2748848E-05 -0.1806370E-04  0.9255380E-08  0.1839362E-07  0.2357630E+05  0.9611001E+03 -0.1090462E-02 -0.3330049E-04
  0.1620000E+01  0.9126192E+04  0.3679760E+03  0.7358598E-07 -0.3725290E-08  0.2454092E-04  0.1979526E-04  0.2437536E-06 -0.2700835E-07  0.2359538E+05  0.9923202E+03  0.2301861E-04  0.2010085E-04
  0.1630000E+01  0.9132055E+04  0.3796543E+03  0.3656727E-07  0.0000000E+00  0.2542796E-04 -0.3107591E-05  0.2194036E-06 -0.5145557E-07  0.2361357E+05  0.1024499E+04  0.1088905E-03  0.5882350E-05
  0.1640000E+01  0.9138521E+04  0.3917077E+03 -0.7268859E-07  0.3725290E-08 -0.7230244E-04 -0.1137885E-03  0.4088733E-07  0.2328306E-08  0.2363380E+05  0.1057772E+04 -0.3680791E-03  0.5340925E-04
  0.1650000E+01  0.9145306E+04  0.4041540E+03  0.7224806E-07  0.7450581E-08 -0.8353682E-05 -0.6246543E-04 -0.5147674E-06  0.1303852E-07  0.2365501E+05  0.1092156E+04  0.3804379E-03  0.1851423E-04