VARIABLES="w (rad/s)"
"abs(F   1   1)" "angle(F   1   1)"
"abs(F   1   2)" "angle(F   1   2)"
"abs(F   1   3)" "angle(F   1   3)"
"abs(F   1   4)" "angle(F   1   4)"
"abs(F   1   5)" "angle(F   1   5)"
"abs(F   1   6)" "angle(F   1   6)"
Zone t="Diffraction force - beta =   0.000 deg",I=  2986,F=POINT
  0.1500000E+00  0.1794118E+03 -0.1570750E+01  0.5331722E-06  0.9944211E+00  0.3063896E+02 -0.2985831E+01  0.2071476E-06  0.2228685E+01  0.3108385E+02  0.1570830E+01  0.4206940E-05 -0.1618632E+01
  0.1600000E+00  0.1910173E+03 -0.1570744E+01  0.2145198E-06  0.3547057E+00  0.3452103E+02 -0.2984373E+01  0.3926251E-06  0.2153536E+01  0.3312235E+02  0.1570834E+01  0.9674171E-05  0.1596985E+01
  0.1700000E+00  0.2033551E+03 -0.1570737E+01  0.1519626E-06 -0.1373401E+01  0.3871014E+02 -0.2983272E+01  0.1030364E-05  0.7086263E+00  0.3525157E+02  0.1570839E+01  0.1502290E-04 -0.1552445E+01
  0.1800000E+00  0.2157658E+03 -0.1570730E+01  0.1824099E-05  0.2984989E+00  0.4304520E+02 -0.2981911E+01  0.2948407E-05  0.6068489E-01  0.3733741E+02  0.1570844E+01  0.1761673E-04 -0.1550706E+01
  0.1900000E+00  0.2286460E+03 -0.1570722E+01  0.2690320E-05  0.3119436E+01  0.4763631E+02 -0.2980706E+01  0.5692263E-06  0.2495474E+01  0.3961017E+02  0.1570850E+01  0.7347013E-05  0.1584994E+01
  0.2000000E+00  0.2405774E+03 -0.1570714E+01  0.9943665E-06 -0.3359676E+00  0.5249223E+02 -0.2979693E+01  0.8860868E-06 -0.8329813E+00  0.4168256E+02  0.1570856E+01  0.2008679E-04 -0.1572280E+01
  0.2100000E+00  0.2524993E+03 -0.1570705E+01  0.4558879E-06  0.1373401E+01  0.5763351E+02 -0.2978944E+01  0.7454886E-05 -0.3107606E+01  0.4374630E+02  0.1570862E+01  0.1265306E-04 -0.1588462E+01
  0.2200000E+00  0.2645017E+03 -0.1570696E+01  0.1133370E-05  0.4342443E+00  0.6309654E+02 -0.2978465E+01  0.2981796E-05  0.1051385E+00  0.4584968E+02  0.1570868E+01  0.3933993E-05  0.1564168E+01
  0.2300000E+00  0.2765833E+03 -0.1570686E+01  0.2037758E-05  0.5717769E+00  0.6855738E+02 -0.2977388E+01  0.4459656E-05  0.5759550E+00  0.4788550E+02  0.1570875E+01  0.4665402E-05  0.1546839E+01
  0.2400000E+00  0.2881177E+03 -0.1570676E+01  0.4649544E-05  0.3128773E+01  0.7425768E+02 -0.2976415E+01  0.1366819E-04  0.3089239E+01  0.4988048E+02  0.1570883E+01  0.9747922E-05 -0.1547865E+01
  0.2500000E+00  0.3008088E+03 -0.1570666E+01  0.2339672E-05  0.3128855E+01  0.8018768E+02 -0.2975518E+01  0.1019484E-04  0.2192631E-01  0.5212174E+02  0.1570890E+01  0.7529349E-05 -0.1537146E+01
  0.2600000E+00  0.3126920E+03 -0.1570655E+01  0.2323482E-05  0.1009478E+01  0.8637764E+02 -0.2974724E+01  0.4167320E-05  0.2016031E+00  0.5421304E+02  0.1570898E+01  0.5375355E-05  0.1506994E+01
  0.2700000E+00  0.3248173E+03 -0.1570643E+01  0.4212683E-05  0.7080344E-01  0.9283032E+02 -0.2974033E+01  0.1242582E-04  0.6720632E-01  0.5630232E+02  0.1570906E+01  0.1506577E-04  0.1616309E+01
  0.2800000E+00  0.3373150E+03 -0.1570632E+01  0.5216768E-05 -0.3118740E+01  0.9955553E+02 -0.2973439E+01  0.2428844E-05  0.1106572E+00  0.5847285E+02  0.1570915E+01  0.9594832E-05 -0.1517968E+01
  0.2900000E+00  0.3496301E+03 -0.1570619E+01  0.5280985E-06  0.2860515E+00  0.1065540E+03 -0.2972943E+01  0.3744197E-05  0.1329679E+01  0.6063618E+02  0.1570924E+01  0.1366471E-04 -0.1577885E+01
  0.3000000E+00  0.3620301E+03 -0.1570606E+01  0.2120420E-05  0.2643368E+01  0.1136223E+03 -0.2972216E+01  0.8542667E-05 -0.2732578E+01  0.6276110E+02  0.1570933E+01  0.2307323E-04  0.1547545E+01
  0.3100000E+00  0.3744206E+03 -0.1570593E+01  0.2960047E-05 -0.1007928E+01  0.1208092E+03 -0.2971365E+01  0.1090622E-04  0.1646994E+00  0.6483948E+02  0.1570943E+01  0.1470760E-04 -0.1575356E+01
  0.3200000E+00  0.3870749E+03 -0.1570579E+01  0.3260870E-05  0.2825622E+01  0.1282404E+03 -0.2970576E+01  0.3737192E-05  0.8474652E+00  0.6700603E+02  0.1570953E+01  0.1682389E-04  0.1578325E+01
  0.3300000E+00  0.3997119E+03 -0.1570565E+01  0.1534168E-05  0.1063698E+01  0.1358953E+03 -0.2969819E+01  0.3565583E-05 -0.1291349E+01  0.6923044E+02  0.1570963E+01  0.6435370E-05 -0.1842735E+01
  0.3400000E+00  0.4122023E+03 -0.1570550E+01  0.5785797E-05  0.1083819E+00  0.1437930E+03 -0.2969109E+01  0.9550191E-05  0.3088518E+01  0.7139611E+02  0.1570974E+01  0.2172720E-04  0.1581770E+01
  0.3500000E+00  0.4247081E+03 -0.1570534E+01  0.7197677E-05 -0.1120290E+00  0.1519316E+03 -0.2968441E+01  0.2116594E-05 -0.2971814E+01  0.7354710E+02  0.1570985E+01  0.1824284E-04  0.1487384E+01
  0.3600000E+00  0.4368647E+03 -0.1570518E+01  0.2735489E-05 -0.2629203E+01  0.1603365E+03 -0.2967834E+01  0.1102303E-04  0.3016902E+01  0.7564443E+02  0.1570997E+01  0.1004658E-04 -0.1545579E+01
  0.3700000E+00  0.4490557E+03 -0.1570501E+01  0.5127386E-05  0.2834547E+01  0.1689989E+03 -0.2967280E+01  0.6767162E-05  0.3044553E+01  0.7779561E+02  0.1571009E+01  0.1868606E-04  0.1570796E+01
  0.3800000E+00  0.4612184E+03 -0.1570484E+01  0.4398746E-05 -0.4787980E+00  0.1779052E+03 -0.2966770E+01  0.7156344E-05  0.2914568E+00  0.7995235E+02  0.1571021E+01  0.4231956E-05 -0.1574317E+01
  0.3900000E+00  0.4733911E+03 -0.1570466E+01  0.4385298E-05 -0.2598842E+01  0.1870684E+03 -0.2966298E+01  0.1623546E-04 -0.2908190E+01  0.8210992E+02  0.1571034E+01  0.5057517E-04 -0.1575805E+01
  0.4000000E+00  0.4855835E+03 -0.1570448E+01  0.4841203E-05  0.7393904E-01  0.1961155E+03 -0.2965530E+01  0.1292421E-04  0.3086222E+01  0.8420430E+02  0.1571048E+01  0.2072119E-05 -0.1360708E+01
  0.4100000E+00  0.4977967E+03 -0.1570429E+01  0.7185512E-05  0.2785735E+01  0.2054127E+03 -0.2964811E+01  0.1807780E-04  0.3049142E+01  0.8628664E+02  0.1571061E+01  0.5604441E-05  0.1594728E+01
  0.4200000E+00  0.5103166E+03 -0.1570409E+01  0.6781649E-05 -0.2734970E+01  0.2149146E+03 -0.2964096E+01  0.8463860E-05 -0.3141592E+01  0.8844410E+02  0.1571075E+01  0.9242613E-05  0.1541772E+01
  0.4300000E+00  0.5230858E+03 -0.1570389E+01  0.5507950E-05  0.2515402E+00  0.2246514E+03 -0.2963410E+01  0.2068824E-04 -0.3062280E+01  0.9069229E+02  0.1571090E+01  0.3068483E-04 -0.1536310E+01
  0.4400000E+00  0.5360989E+03 -0.1570368E+01  0.5495277E-06 -0.1352127E+01  0.2346184E+03 -0.2962746E+01  0.7664761E-05 -0.4462581E+00  0.9297749E+02  0.1571105E+01  0.3224120E-04  0.1610092E+01
  0.4500000E+00  0.5489139E+03 -0.1570347E+01  0.3186480E-05 -0.1439481E+01  0.2448140E+03 -0.2962098E+01  0.1697435E-04  0.2628643E+00  0.9521003E+02  0.1571120E+01  0.3525796E-04 -0.1580940E+01
  0.4600000E+00  0.5617712E+03 -0.1570325E+01  0.6274079E-05  0.2495869E+00  0.2552155E+03 -0.2961448E+01  0.1586259E-04 -0.9219075E-01  0.9744130E+02  0.1571136E+01  0.1832749E-04  0.1626926E+01
  0.4700000E+00  0.5746115E+03 -0.1570302E+01  0.5971184E-05 -0.1630724E+01  0.2658796E+03 -0.2960834E+01  0.4638452E-05 -0.1118642E+01  0.9965778E+02  0.1571153E+01  0.1344081E-05 -0.1504228E+01
  0.4800000E+00  0.5874388E+03 -0.1570279E+01  0.1301785E-05  0.2863293E+01  0.2768590E+03 -0.2960271E+01  0.3262645E-04 -0.3048286E+01  0.1018792E+03  0.1571170E+01  0.1687291E-04 -0.1546949E+01
  0.4900000E+00  0.6004035E+03 -0.1570254E+01  0.7044452E-05  0.2723368E+01  0.2880224E+03 -0.2959722E+01  0.1044158E-04 -0.4968410E+00  0.1041475E+03  0.1571187E+01  0.2845962E-04 -0.1526276E+01
  0.5000000E+00  0.6133507E+03 -0.1570230E+01  0.7771495E-06 -0.1494024E+01  0.2993989E+03 -0.2959186E+01  0.2152553E-04 -0.2769375E-01  0.1064184E+03  0.1571205E+01  0.3246328E-04 -0.1593749E+01
  0.5100000E+00  0.6261998E+03 -0.1570204E+01  0.7069121E-05  0.2894569E+01  0.3111073E+03 -0.2958716E+01  0.5373960E-04  0.8940468E-01  0.1086778E+03  0.1571224E+01  0.1519205E-04 -0.1890066E+01
  0.5200000E+00  0.6391124E+03 -0.1570178E+01  0.9201923E-05 -0.2791162E+01  0.3227333E+03 -0.2958087E+01  0.3476971E-04  0.3073827E+01  0.1109062E+03  0.1571243E+01  0.4557595E-04 -0.1589761E+01
  0.5300000E+00  0.6521290E+03 -0.1570151E+01  0.5426969E-05 -0.1537841E+01  0.3343955E+03 -0.2957373E+01  0.1901753E-05 -0.2579671E+01  0.1131140E+03  0.1571262E+01  0.2274113E-04 -0.1583902E+01
  0.5400000E+00  0.6652166E+03 -0.1570123E+01  0.6072072E-05  0.2594439E+01  0.3463039E+03 -0.2956683E+01  0.9550191E-05 -0.3088518E+01  0.1153207E+03  0.1571283E+01  0.7889531E-04  0.1585529E+01
  0.5500000E+00  0.6782543E+03 -0.1570094E+01  0.3955970E-05 -0.1465131E+01  0.3584830E+03 -0.2956032E+01  0.3749147E-04  0.5646857E-01  0.1175479E+03  0.1571303E+01  0.2925914E-04 -0.1483087E+01
  0.5600000E+00  0.6913895E+03 -0.1570065E+01  0.5569128E-05 -0.1474323E+01  0.3708372E+03 -0.2955367E+01  0.7606309E-05 -0.2483986E+01  0.1198514E+03  0.1571325E+01  0.1890804E-04 -0.1452306E+01
  0.5700001E+00  0.7046100E+03 -0.1570035E+01  0.9839281E-05 -0.3029376E-01  0.3833954E+03 -0.2954697E+01  0.1743436E-04 -0.2609089E+01  0.1221992E+03  0.1571346E+01  0.6061839E-04  0.1566863E+01
  0.5800000E+00  0.7177031E+03 -0.1570004E+01  0.2587830E-05  0.6711438E+00  0.3961756E+03 -0.2954036E+01  0.1237471E-04 -0.2443154E+01  0.1245246E+03  0.1571369E+01  0.8171793E-04  0.1597787E+01
  0.5900000E+00  0.7307197E+03 -0.1569972E+01  0.6136674E-06 -0.2077895E+01  0.4091776E+03 -0.2953378E+01  0.3209659E-04 -0.3098868E+01  0.1268174E+03  0.1571392E+01  0.2006473E-04 -0.1445704E+01
  0.6000000E+00  0.7437597E+03 -0.1569939E+01  0.1116534E-04 -0.5875582E-01  0.4224359E+03 -0.2952738E+01  0.8854901E-05  0.1774132E+01  0.1291101E+03  0.1571416E+01  0.1746914E-04 -0.1594683E+01
  0.6100000E+00  0.7568667E+03 -0.1569905E+01  0.4568999E-05  0.1308274E+00  0.4359277E+03 -0.2952102E+01  0.1821663E-04 -0.2267001E+01  0.1314147E+03  0.1571441E+01  0.3213316E-04  0.1506758E+01
  0.6200000E+00  0.7699005E+03 -0.1569870E+01  0.1255410E-04 -0.3337620E+00  0.4496366E+03 -0.2951458E+01  0.5770961E-04  0.3120934E+01  0.1336826E+03  0.1571466E+01  0.9219412E-04 -0.1539435E+01
  0.6300000E+00  0.7829531E+03 -0.1569834E+01  0.2735327E-05  0.1373401E+01  0.4636603E+03 -0.2950830E+01  0.2425228E-04  0.2891028E+00  0.1359721E+03  0.1571492E+01  0.7920691E-04  0.1517719E+01
  0.6400000E+00  0.7962886E+03 -0.1569798E+01  0.8476653E-05  0.2674800E+01  0.4778536E+03 -0.2950219E+01  0.2517011E-04  0.1425668E+00  0.1383290E+03  0.1571518E+01  0.5864087E-04 -0.1596718E+01
  0.6500000E+00  0.8096815E+03 -0.1569760E+01  0.7609345E-05  0.1020069E+00  0.4920456E+03 -0.2949556E+01  0.3873220E-04 -0.1552818E+00  0.1406957E+03  0.1571545E+01  0.4096728E-04  0.1522037E+01
  0.6600000E+00  0.8231412E+03 -0.1569721E+01  0.5901161E-05  0.7996829E+00  0.5069179E+03 -0.2949072E+01  0.3186370E-04 -0.3043227E+01  0.1430780E+03  0.1571573E+01  0.1636688E-04  0.1636395E+01
  0.6700001E+00  0.8367643E+03 -0.1569682E+01  0.5990192E-06  0.1670465E+01  0.5219172E+03 -0.2948540E+01  0.1576461E-04 -0.1676861E+01  0.1454814E+03  0.1571602E+01  0.3946378E-04  0.1528494E+01
  0.6800001E+00  0.8506417E+03 -0.1569641E+01  0.1682710E-05  0.2741352E+01  0.5367824E+03 -0.2947913E+01  0.3446659E-04  0.8831137E-01  0.1478773E+03  0.1571631E+01  0.2757721E-04  0.1543776E+01
  0.6900001E+00  0.8645164E+03 -0.1569600E+01  0.1089005E-04 -0.5150728E+00  0.5515448E+03 -0.2947190E+01  0.1753025E-04  0.3109983E+00  0.1502504E+03  0.1571662E+01  0.8324822E-04  0.1555044E+01
  0.7000000E+00  0.8785060E+03 -0.1569558E+01  0.8457351E-05 -0.2347226E+00  0.5663160E+03 -0.2946395E+01  0.6101624E-04  0.1752664E+00  0.1526327E+03  0.1571693E+01  0.6625831E-04 -0.1555503E+01
  0.7100000E+00  0.8925538E+03 -0.1569514E+01  0.1138683E-04 -0.2799977E+01  0.5815787E+03 -0.2945701E+01  0.1195010E-04 -0.3249051E+00  0.1550162E+03  0.1571725E+01  0.1459553E-04 -0.1404641E+01
  0.7200000E+00  0.9066881E+03 -0.1569469E+01  0.4827608E-05  0.1923787E+01  0.5969864E+03 -0.2944985E+01  0.5723002E-04  0.2828776E+00  0.1574530E+03  0.1571757E+01  0.5138529E-04  0.1668387E+01
  0.7300000E+00  0.9208963E+03 -0.1569423E+01  0.5581236E-05  0.2792822E+01  0.6126594E+03 -0.2944286E+01  0.5533122E-04  0.3024987E+01  0.1599393E+03  0.1571791E+01  0.3164103E-04 -0.1514253E+01
  0.7400000E+00  0.9352321E+03 -0.1569376E+01  0.6556511E-05  0.1570796E+01  0.6288890E+03 -0.2943699E+01  0.2257248E-04 -0.1577687E+00  0.1624809E+03  0.1571825E+01  0.5384214E-04 -0.1662809E+01
  0.7500000E+00  0.9497170E+03 -0.1569328E+01  0.4586073E-05  0.2984991E+01  0.6449381E+03 -0.2942976E+01  0.1008024E-04  0.1078056E+01  0.1650511E+03  0.1571860E+01  0.1815588E-04 -0.1544530E+01
  0.7600000E+00  0.9640552E+03 -0.1569278E+01  0.4609640E-05  0.8677801E+00  0.6612048E+03 -0.2942250E+01  0.3952144E-04 -0.1460561E+00  0.1675814E+03  0.1571897E+01  0.1174272E-04 -0.1580948E+01
  0.7700000E+00  0.9782742E+03 -0.1569227E+01  0.1390207E-04  0.1183921E+01  0.6776949E+03 -0.2941520E+01  0.1701856E-04 -0.2450442E+01  0.1700820E+03  0.1571934E+01  0.9592404E-04 -0.1550290E+01
  0.7800000E+00  0.9924592E+03 -0.1569174E+01  0.1728576E-04  0.6896442E-02  0.6944077E+03 -0.2940787E+01  0.3399158E-04 -0.3156846E-01  0.1725764E+03  0.1571973E+01  0.6196315E-04  0.1582340E+01
  0.7900000E+00  0.1006690E+04 -0.1569119E+01  0.1971725E-04 -0.3072008E+01  0.7113514E+03 -0.2940048E+01  0.5938724E-04 -0.2660015E-01  0.1750792E+03  0.1572012E+01  0.5620746E-04  0.1567615E+01
  0.8000000E+00  0.1021046E+04 -0.1569063E+01  0.2109811E-04  0.4282641E+00  0.7285344E+03 -0.2939304E+01  0.5200512E-04  0.1397089E+00  0.1775905E+03  0.1572053E+01  0.2329011E-04  0.1877574E+01
  0.8099999E+00  0.1035380E+04 -0.1569006E+01  0.6181665E-05  0.2260596E+01  0.7459651E+03 -0.2938553E+01  0.1912854E-04 -0.1746191E+01  0.1800806E+03  0.1572095E+01  0.2275118E-04 -0.1476341E+01
  0.8200001E+00  0.1049800E+04 -0.1568948E+01  0.1786430E-04 -0.3829847E+00  0.7637014E+03 -0.2937778E+01  0.4761124E-04  0.2665628E+01  0.1826159E+03  0.1572137E+01  0.5218471E-04 -0.1605069E+01
  0.8300000E+00  0.1064317E+04 -0.1568888E+01  0.1091221E-04 -0.5713375E+00  0.7816125E+03 -0.2937042E+01  0.3572705E-04 -0.2271740E+00  0.1851853E+03  0.1572181E+01  0.1155768E-03 -0.1603808E+01
  0.8400000E+00  0.1078850E+04 -0.1568826E+01  0.1668941E-04  0.3138021E+01  0.7996924E+03 -0.2936354E+01  0.2938758E-04  0.2932052E+00  0.1877696E+03  0.1572226E+01  0.2710500E-04 -0.1434031E+01
  0.8500000E+00  0.1093458E+04 -0.1568763E+01  0.1294903E-04 -0.2235473E+01  0.8180457E+03 -0.2935670E+01  0.4705193E-04 -0.5957409E-01  0.1903713E+03  0.1572272E+01  0.5184220E-04 -0.1686024E+01
  0.8600000E+00  0.1108128E+04 -0.1568698E+01  0.2416842E-04 -0.1310848E+00  0.8366996E+03 -0.2934992E+01  0.9875583E-04  0.1033921E+00  0.1929846E+03  0.1572320E+01  0.6237629E-04  0.1571752E+01
  0.8700000E+00  0.1122892E+04 -0.1568631E+01  0.1263843E-04 -0.1551931E+01  0.8556893E+03 -0.2934322E+01  0.2088854E-04  0.1994236E+01  0.1956182E+03  0.1572368E+01  0.1209380E-03  0.1569318E+01
  0.8800000E+00  0.1137623E+04 -0.1568563E+01  0.1729562E-04  0.3446910E-01  0.8742816E+03 -0.2933578E+01  0.1428392E-03  0.3057620E+01  0.1982058E+03  0.1572418E+01  0.1731502E-04 -0.1512243E+01
  0.8900001E+00  0.1152501E+04 -0.1568493E+01  0.9036347E-05  0.1030377E+01  0.8927691E+03 -0.2932790E+01  0.3726345E-04  0.2652905E+01  0.2007881E+03  0.1572469E+01  0.8553474E-05  0.1577765E+01
  0.9000000E+00  0.1167434E+04 -0.1568422E+01  0.9756426E-05 -0.2291350E+01  0.9114642E+03 -0.2931993E+01  0.2169775E-04 -0.3129231E+01  0.2033727E+03  0.1572522E+01  0.1318924E-03  0.1544130E+01
  0.9100001E+00  0.1182462E+04 -0.1568348E+01  0.3454237E-04  0.1997644E+00  0.9303882E+03 -0.2931198E+01  0.1919232E-04 -0.4636476E+00  0.2059668E+03  0.1572576E+01  0.7311634E-04 -0.1474453E+01
  0.9200000E+00  0.1197588E+04 -0.1568273E+01  0.9356980E-05  0.2165866E+01  0.9494135E+03 -0.2930371E+01  0.3453153E-04  0.2422763E+01  0.2085727E+03  0.1572631E+01  0.1153623E-04 -0.1167261E+01
  0.9300001E+00  0.1212884E+04 -0.1568196E+01  0.6503465E-05 -0.1234554E+01  0.9686168E+03 -0.2929531E+01  0.3588409E-04 -0.9380921E+00  0.2112518E+03  0.1572688E+01  0.5114538E-04  0.1510159E+01
  0.9400001E+00  0.1228239E+04 -0.1568116E+01  0.9062454E-05 -0.7993507E+00  0.9882995E+03 -0.2928751E+01  0.9183481E-04  0.3083438E-01  0.2139717E+03  0.1572746E+01  0.3348598E-04 -0.1624221E+01
  0.9500000E+00  0.1243741E+04 -0.1568035E+01  0.2204671E-04 -0.2541587E+00  0.1007966E+04 -0.2927911E+01  0.4343883E-04  0.2926570E+01  0.2167496E+03  0.1572805E+01  0.9101321E-04  0.1546563E+01
  0.9600000E+00  0.1259373E+04 -0.1567951E+01  0.2594637E-04  0.3937308E+00  0.1027872E+04 -0.2927065E+01  0.3351648E-04 -0.3904136E+00  0.2195618E+03  0.1572867E+01  0.7776086E-04  0.1583827E+01
  0.9700000E+00  0.1275391E+04 -0.1567865E+01  0.3000121E-04  0.5152033E+00  0.1047853E+04 -0.2926193E+01  0.2504035E-04 -0.2261519E-01  0.2224260E+03  0.1572930E+01  0.9761142E-04  0.1584231E+01
  0.9800000E+00  0.1291134E+04 -0.1567776E+01  0.1005271E-04  0.3573827E+00  0.1068348E+04 -0.2925369E+01  0.1697467E-04  0.2084716E+01  0.2252359E+03  0.1572994E+01  0.1096584E-04 -0.2331137E+00
  0.9900000E+00  0.1306952E+04 -0.1567685E+01  0.8355712E-05 -0.1325818E+01  0.1088887E+04 -0.2924497E+01  0.1181403E-03 -0.3006474E+01  0.2280410E+03  0.1573061E+01  0.2508933E-04 -0.1615950E+01
  0.1000000E+01  0.1322957E+04 -0.1567591E+01  0.1613305E-04  0.1681862E+01  0.1109622E+04 -0.2923607E+01  0.1467149E-04  0.1717577E+01  0.2308713E+03  0.1573130E+01  0.1376234E-03 -0.1551306E+01
  0.1010000E+01  0.1339190E+04 -0.1567495E+01  0.4871129E-04  0.5509125E-01  0.1130780E+04 -0.2922747E+01  0.5149855E-05  0.1289317E+01  0.2337329E+03  0.1573201E+01  0.1108373E-03  0.1691549E+01
  0.1020000E+01  0.1355725E+04 -0.1567396E+01  0.2166758E-04  0.2375647E+01  0.1151894E+04 -0.2921810E+01  0.3356997E-04 -0.1428272E+01  0.2366364E+03  0.1573274E+01  0.6580396E-04  0.1574419E+01
  0.1030000E+01  0.1372165E+04 -0.1567295E+01  0.2863232E-04  0.2157644E+01  0.1173335E+04 -0.2920879E+01  0.1859438E-04 -0.2300633E+01  0.2395060E+03  0.1573349E+01  0.1381367E-03  0.1564324E+01
  0.1040000E+01  0.1388688E+04 -0.1567191E+01  0.8623538E-05  0.9691763E-01  0.1195013E+04 -0.2919922E+01  0.1577396E-04 -0.8228139E+00  0.2423856E+03  0.1573425E+01  0.3962890E-04 -0.1486468E+01
  0.1050000E+01  0.1405373E+04 -0.1567085E+01  0.4438946E-04 -0.4432579E-01  0.1217012E+04 -0.2918918E+01  0.1191857E-03 -0.3081545E+01  0.2453295E+03  0.1573503E+01  0.9415695E-05 -0.1262058E+01
  0.1060000E+01  0.1422238E+04 -0.1566976E+01  0.2668698E-04 -0.4456675E+00  0.1239184E+04 -0.2917941E+01  0.2002221E-04 -0.2175388E+00  0.2483217E+03  0.1573583E+01  0.1029127E-03 -0.1471012E+01
  0.1070000E+01  0.1439181E+04 -0.1566864E+01  0.2980328E-04  0.3133593E+01  0.1261335E+04 -0.2917032E+01  0.8318563E-04 -0.7207322E-01  0.2513377E+03  0.1573665E+01  0.3694028E-04  0.2000161E+01
  0.1080000E+01  0.1456182E+04 -0.1566749E+01  0.1565153E-04 -0.1044093E+01  0.1283882E+04 -0.2916142E+01  0.7819859E-04  0.2790673E+01  0.2543709E+03  0.1573750E+01  0.2805607E-04 -0.1485714E+01
  0.1090000E+01  0.1473271E+04 -0.1566630E+01  0.2607123E-04 -0.1095902E+01  0.1306722E+04 -0.2915246E+01  0.9665694E-04  0.1476093E+00  0.2574246E+03  0.1573838E+01  0.4449957E-04  0.1653938E+01
  0.1100000E+01  0.1490499E+04 -0.1566509E+01  0.1574116E-04  0.1231084E+01  0.1329917E+04 -0.2914345E+01  0.8994508E-04 -0.2699581E+01  0.2605050E+03  0.1573928E+01  0.9443306E-04  0.1522808E+01
  0.1110000E+01  0.1507810E+04 -0.1566384E+01  0.2092666E-04 -0.1548008E+01  0.1353463E+04 -0.2913429E+01  0.1025477E-03 -0.2521343E+01  0.2636029E+03  0.1574020E+01  0.8321115E-04 -0.1579392E+01
  0.1120000E+01  0.1525265E+04 -0.1566256E+01  0.2732286E-04 -0.2216915E+01  0.1376308E+04 -0.2912495E+01  0.8010319E-04 -0.3096321E+00  0.2666746E+03  0.1574115E+01  0.1097337E-03  0.1546894E+01
  0.1130000E+01  0.1543200E+04 -0.1566127E+01  0.1081327E-04 -0.1815775E+01  0.1398950E+04 -0.2911574E+01  0.1962990E-03  0.2999159E+01  0.2697792E+03  0.1574211E+01  0.1099055E-04  0.1789465E+01
  0.1140000E+01  0.1560834E+04 -0.1565993E+01  0.1295438E-04  0.1831399E+01  0.1421689E+04 -0.2910613E+01  0.8304108E-04 -0.2453288E+01  0.2728409E+03  0.1574310E+01  0.3289357E-04 -0.1607045E+01
  0.1150000E+01  0.1578489E+04 -0.1565856E+01  0.1221546E-04 -0.2603684E+01  0.1444612E+04 -0.2909637E+01  0.1507766E-03  0.2978394E+01  0.2758992E+03  0.1574411E+01  0.3412620E-04 -0.1497373E+01
  0.1160000E+01  0.1596247E+04 -0.1565715E+01  0.1314347E-04 -0.2146221E+01  0.1467707E+04 -0.2908644E+01  0.8814992E-04  0.2858394E+01  0.2789669E+03  0.1574516E+01  0.6160206E-04  0.1640518E+01
  0.1170000E+01  0.1614144E+04 -0.1565570E+01  0.8654430E-04  0.2975538E+01  0.1491103E+04 -0.2907660E+01  0.1602499E-03 -0.2017955E-01  0.2820517E+03  0.1574624E+01  0.1111965E-03 -0.1546136E+01
  0.1180000E+01  0.1632376E+04 -0.1565421E+01  0.5623091E-06 -0.5585993E+00  0.1514574E+04 -0.2906646E+01  0.1532381E-03  0.2958634E+01  0.2852568E+03  0.1574734E+01  0.9522711E-04  0.1483055E+01
  0.1190000E+01  0.1650771E+04 -0.1565268E+01  0.9876581E-05 -0.2249307E+01  0.1538183E+04 -0.2905612E+01  0.6691963E-04  0.3669021E+00  0.2885138E+03  0.1574847E+01  0.4550830E-04  0.1573416E+01
  0.1200000E+01  0.1669353E+04 -0.1565111E+01  0.2576693E-04 -0.1240999E+01  0.1561956E+04 -0.2904563E+01  0.3614322E-04  0.4105219E+00  0.2918353E+03  0.1574964E+01  0.1420855E-05  0.1739393E+01
  0.1210000E+01  0.1688115E+04 -0.1564950E+01  0.6342842E-04  0.1691568E-01  0.1585961E+04 -0.2903507E+01  0.5999397E-05 -0.3052556E+00  0.2952095E+03  0.1575083E+01  0.8379625E-04  0.1526681E+01
  0.1220000E+01  0.1707079E+04 -0.1564784E+01  0.2774915E-04  0.8171419E-01  0.1610140E+04 -0.2902434E+01  0.4741567E-04  0.1227180E+01  0.2986231E+03  0.1575206E+01  0.5689981E-05  0.7779908E+00
  0.1230000E+01  0.1725832E+04 -0.1564613E+01  0.4544048E-04  0.3062809E+01  0.1634532E+04 -0.2901349E+01  0.6047129E-04 -0.7475784E+00  0.3019979E+03  0.1575333E+01  0.6230328E-04 -0.1547834E+01
  0.1240000E+01  0.1744679E+04 -0.1564436E+01  0.2351447E-04  0.2237620E+01  0.1659007E+04 -0.2900228E+01  0.1981088E-03  0.2872385E+01  0.3053820E+03  0.1575464E+01  0.1217253E-04  0.2260833E+01
  0.1250000E+01  0.1763564E+04 -0.1564254E+01  0.3158664E-04 -0.5041659E+00  0.1683752E+04 -0.2899100E+01  0.5337299E-04 -0.2497422E+01  0.3087537E+03  0.1575599E+01  0.6683765E-04  0.1595769E+01
  0.1260000E+01  0.1782569E+04 -0.1564067E+01  0.3613772E-04  0.2627766E+01  0.1708703E+04 -0.2897953E+01  0.1416254E-03 -0.2977084E+01  0.3121441E+03  0.1575739E+01  0.8879464E-04 -0.1588250E+01
  0.1270000E+01  0.1801781E+04 -0.1563873E+01  0.4547709E-04  0.6991014E+00  0.1733762E+04 -0.2896769E+01  0.6374142E-04 -0.1413046E+01  0.3155714E+03  0.1575882E+01  0.9677462E-04 -0.1627491E+01
  0.1280000E+01  0.1821073E+04 -0.1563674E+01  0.4649625E-04 -0.3127491E+01  0.1759117E+04 -0.2895574E+01  0.6809647E-04  0.1593208E+00  0.3190169E+03  0.1576030E+01  0.1201162E-03  0.1605539E+01
  0.1290000E+01  0.1840447E+04 -0.1563469E+01  0.1049042E-04  0.0000000E+00  0.1784727E+04 -0.2894360E+01  0.2337977E-04  0.2733270E+01  0.3224599E+03  0.1576182E+01  0.3438651E-05 -0.1103273E+01
  0.1300000E+01  0.1859921E+04 -0.1563260E+01  0.2906269E-04 -0.2547333E+01  0.1810399E+04 -0.2893095E+01  0.3076454E-04 -0.1336156E+01  0.3258991E+03  0.1576338E+01  0.1042204E-03  0.1624582E+01
  0.1310000E+01  0.1879468E+04 -0.1563045E+01  0.3041683E-04 -0.1574169E+00  0.1836673E+04 -0.2891832E+01  0.3626475E-03  0.3104367E+01  0.3293533E+03  0.1576497E+01  0.1863715E-03 -0.1542009E+01
  0.1320000E+01  0.1899340E+04 -0.1562825E+01  0.3430002E-04 -0.1096977E+00  0.1862895E+04 -0.2890438E+01  0.5831181E-04 -0.6873123E-01  0.3329320E+03  0.1576661E+01  0.1256204E-03  0.1563205E+01
  0.1330000E+01  0.1919414E+04 -0.1562598E+01  0.8056187E-04  0.2796678E+01  0.1889413E+04 -0.2889171E+01  0.7355929E-04 -0.2234227E+01  0.3365533E+03  0.1576829E+01  0.1529089E-04 -0.1711591E+01
  0.1340000E+01  0.1939576E+04 -0.1562364E+01  0.3396879E-04 -0.1234618E+01  0.1915977E+04 -0.2887971E+01  0.7375149E-04  0.1349161E+01  0.3401946E+03  0.1577003E+01  0.6198883E-04  0.1322086E+01
  0.1350000E+01  0.1959902E+04 -0.1562124E+01  0.4445356E-04  0.2189598E+00  0.1943002E+04 -0.2886782E+01  0.6994620E-04  0.3031263E+00  0.3438737E+03  0.1577182E+01  0.7193504E-04  0.1321296E+01
  0.1360000E+01  0.1980356E+04 -0.1561875E+01  0.6867451E-04 -0.2996136E+01  0.1970106E+04 -0.2885539E+01  0.7153543E-04 -0.2532010E+01  0.3475788E+03  0.1577368E+01  0.1055171E-03 -0.1729630E+01
  0.1370000E+01  0.2000918E+04 -0.1561620E+01  0.3931467E-04  0.2759397E+01  0.1997752E+04 -0.2884303E+01  0.1380388E-04 -0.5933918E+00  0.3513074E+03  0.1577558E+01  0.4158304E-04 -0.1513429E+01
  0.1380000E+01  0.2021708E+04 -0.1561358E+01  0.5486040E-04  0.1890855E+00  0.2025634E+04 -0.2883010E+01  0.7800409E-04 -0.2088805E+01  0.3550818E+03  0.1577754E+01  0.2073576E-04  0.4957909E+00
  0.1390000E+01  0.2043034E+04 -0.1561091E+01  0.1482084E-04  0.6885591E+00  0.2053636E+04 -0.2881687E+01  0.9529066E-04  0.4376994E+00  0.3589291E+03  0.1577955E+01  0.1163192E-04 -0.4223866E+00
  0.1400000E+01  0.2064415E+04 -0.1560818E+01  0.1388417E-04 -0.1049520E+01  0.2079734E+04 -0.2880520E+01  0.6911826E-04 -0.2879463E+01  0.3626775E+03  0.1578159E+01  0.8971640E-04  0.1586742E+01
  0.1410000E+01  0.2085957E+04 -0.1560539E+01  0.4949770E-04 -0.2169487E+01  0.2105950E+04 -0.2879304E+01  0.9919934E-04 -0.2746386E+01  0.3664440E+03  0.1578368E+01  0.1120638E-03  0.1446012E+01
  0.1420000E+01  0.2107769E+04 -0.1560253E+01  0.2657652E-04  0.4576296E+00  0.2132376E+04 -0.2878067E+01  0.8961868E-04  0.7617639E+00  0.3702479E+03  0.1578581E+01  0.2920488E-04  0.1916429E+01
  0.1430000E+01  0.2129895E+04 -0.1559961E+01  0.1180413E-04 -0.1590996E+01  0.2158912E+04 -0.2876798E+01  0.6468320E-04 -0.9849661E+00  0.3740863E+03  0.1578801E+01  0.2649359E-04 -0.1665428E+01
  0.1440000E+01  0.2152251E+04 -0.1559660E+01  0.4051998E-04  0.9917694E+00  0.2185641E+04 -0.2875517E+01  0.2474538E-03  0.2863425E+01  0.3779456E+03  0.1579027E+01  0.1224205E-04  0.1960344E+01
  0.1450000E+01  0.2175246E+04 -0.1559352E+01  0.2846147E-04 -0.2742613E+01  0.2212910E+04 -0.2874274E+01  0.1498719E-03 -0.2623137E+01  0.3818841E+03  0.1579260E+01  0.5501565E-04 -0.1219063E+01
  0.1460000E+01  0.2198568E+04 -0.1559036E+01  0.6963282E-04  0.3056319E+01  0.2239569E+04 -0.2872912E+01  0.2896489E-03  0.2846172E+00  0.3859446E+03  0.1579499E+01  0.6782786E-04  0.1590130E+01
  0.1470000E+01  0.2222053E+04 -0.1558710E+01  0.3552681E-04  0.2202553E+01  0.2266807E+04 -0.2871599E+01  0.5843152E-04 -0.2027145E+01  0.3901020E+03  0.1579744E+01  0.5129048E-04  0.1219643E+01
  0.1480000E+01  0.2245781E+04 -0.1558376E+01  0.2492773E-04  0.7287273E+00  0.2295241E+04 -0.2870422E+01  0.2056049E-03 -0.2460570E+01  0.3943210E+03  0.1579996E+01  0.6303737E-05 -0.1799721E+01
  0.1490000E+01  0.2269921E+04 -0.1558032E+01  0.5020198E-04  0.1365135E+01  0.2321535E+04 -0.2868906E+01  0.4382650E-03 -0.4911624E-01  0.3986584E+03  0.1580255E+01  0.3283264E-05 -0.1425048E+01
  0.1500000E+01  0.2294244E+04 -0.1557678E+01  0.4422256E-04 -0.3069421E+01  0.2349821E+04 -0.2867631E+01  0.2125850E-03  0.3352722E+00  0.4030341E+03  0.1580522E+01  0.9507358E-04 -0.1516854E+01
  0.1510000E+01  0.2318983E+04 -0.1557314E+01  0.2789599E-04 -0.1249046E+01  0.2378250E+04 -0.2866338E+01  0.6969166E-04  0.1742694E+01  0.4074856E+03  0.1580796E+01  0.1489167E-03  0.1559589E+01
  0.1520000E+01  0.2343390E+04 -0.1556938E+01  0.3546116E-04  0.5343660E+00  0.2404533E+04 -0.2864709E+01  0.1694103E-03  0.1882873E+00  0.4118685E+03  0.1581080E+01  0.6212405E-04 -0.2042918E+01
  0.1530000E+01  0.2367904E+04 -0.1556551E+01  0.9656872E-05 -0.1820266E+01  0.2433332E+04 -0.2863383E+01  0.1689237E-03 -0.2969077E+01  0.4162561E+03  0.1581372E+01  0.4123233E-04 -0.1828046E+01
  0.1540000E+01  0.2392604E+04 -0.1556151E+01  0.2645110E-04  0.2841934E+01  0.2461435E+04 -0.2861918E+01  0.5668921E-03 -0.9044094E-01  0.4206588E+03  0.1581674E+01  0.6124075E-04 -0.1483088E+01
  0.1550000E+01  0.2417538E+04 -0.1555740E+01  0.6752142E-04  0.2859352E+01  0.2489156E+04 -0.2860357E+01  0.1385993E-03  0.1973825E+01  0.4251005E+03  0.1581985E+01  0.1027039E-03  0.1551063E+01
  0.1560000E+01  0.2442707E+04 -0.1555316E+01  0.7027428E-04 -0.8063909E+00  0.2517705E+04 -0.2858859E+01  0.3873275E-04 -0.1922723E+01  0.4295810E+03  0.1582305E+01  0.5612094E-04 -0.1581417E+01
  0.1570000E+01  0.2468252E+04 -0.1554880E+01  0.1411615E-03 -0.1583483E-01  0.2546108E+04 -0.2857289E+01  0.2735135E-03 -0.2611918E+01  0.4341241E+03  0.1582635E+01  0.9306194E-04 -0.1803464E+01
  0.1580000E+01  0.2494113E+04 -0.1554431E+01  0.2271438E-04  0.2627998E+00  0.2574626E+04 -0.2855681E+01  0.1406691E-03  0.3136084E+01  0.4386971E+03  0.1582976E+01  0.5112912E-04  0.1387919E+01
  0.1590000E+01  0.2519837E+04 -0.1553969E+01  0.5197744E-04 -0.3132419E+01  0.2603459E+04 -0.2854058E+01  0.1901760E-03 -0.3002931E+01  0.4432196E+03  0.1583325E+01  0.2304149E-03  0.1546995E+01
  0.1600000E+01  0.2545661E+04 -0.1553496E+01  0.4490996E-04 -0.1178583E+01  0.2633060E+04 -0.2852466E+01  0.1192111E-03 -0.2770650E+01  0.4477627E+03  0.1583683E+01  0.1943969E-03  0.1606371E+01
  0.1610000E+01  0.2571640E+04 -0.1553009E+01  0.2675346E-04  0.9420000E+00  0.2661380E+04 -0.2850595E+01  0.2182670E-04 -0.1461345E+01  0.4523996E+03  0.1584051E+01  0.3765628E-04  0.1507439E+01
  0.1620000E+01  0.2597914E+04 -0.1552508E+01  0.2927227E-04  0.7947571E+00  0.2691351E+04 -0.2848864E+01  0.7158764E-04  0.2255940E+01  0.4571261E+03  0.1584431E+01  0.8489004E-04  0.1800299E+01
  0.1630000E+01  0.2624417E+04 -0.1551991E+01  0.2035409E-04 -0.2418355E+01  0.2720868E+04 -0.2847273E+01  0.6477972E-04  0.7860488E+00  0.4618982E+03  0.1584822E+01  0.1900768E-03 -0.1627271E+01
  0.1640000E+01  0.2651365E+04 -0.1551460E+01  0.3686797E-04 -0.1713551E+01  0.2750531E+04 -0.2845653E+01  0.7629788E-04 -0.1015590E-01  0.4667549E+03  0.1585224E+01  0.1550454E-04  0.1540037E+01
  0.1650000E+01  0.2678475E+04 -0.1550912E+01  0.5106365E-04  0.7548544E+00  0.2780567E+04 -0.2844011E+01  0.1988334E-03  0.2403255E+00  0.4716425E+03  0.1585641E+01  0.3806494E-03  0.1491166E+01