VARIABLES="w (rad/s)"
"abs(F   1   1)" "angle(F   1   1)"
"abs(F   1   2)" "angle(F   1   2)"
"abs(F   1   3)" "angle(F   1   3)"
"abs(F   1   4)" "angle(F   1   4)"
"abs(F   1   5)" "angle(F   1   5)"
"abs(F   1   6)" "angle(F   1   6)"
Zone t="Diffraction force - beta =   0.000 deg",I=  2986,F=POINT
  0.1500000E+00  0.3950605E+03 -0.1570777E+01  0.9158182E-03  0.8135437E-03  0.2005792E+05 -0.2369687E-03  0.2426020E-02  0.6756447E-04  0.4920469E+02  0.1570818E+01  0.8352853E-04  0.4251437E+00
  0.1600000E+00  0.4210849E+03 -0.1570771E+01  0.3740415E-03  0.3585443E-03  0.2005105E+05 -0.2695644E-03  0.4808683E-03  0.3140292E+01  0.5245619E+02  0.1570819E+01  0.3403462E-04  0.2044039E+01
  0.1700000E+00  0.4478500E+03 -0.1570766E+01  0.6408395E-03  0.3140895E+01  0.2004364E+05 -0.3044876E-03  0.4805737E-02  0.3141454E+01  0.5579944E+02  0.1570813E+01  0.1681104E-03 -0.2131023E+00
  0.1800000E+00  0.4746967E+03 -0.1570764E+01  0.1703239E-04  0.5952643E-01  0.2003592E+05 -0.3416043E-03  0.1475416E-02  0.2827897E-03  0.5910036E+02  0.1570826E+01  0.2332100E-04 -0.1040376E+01
  0.1900000E+00  0.5020224E+03 -0.1570768E+01  0.1912288E-02  0.2805229E-03  0.2002773E+05 -0.3810231E-03  0.1961208E-02  0.3141387E+01  0.6258925E+02  0.1570819E+01  0.1531374E-03  0.3065328E+01
  0.2000000E+00  0.5284092E+03 -0.1570756E+01  0.1412377E-02  0.2110087E-04  0.2001908E+05 -0.4226672E-03  0.2777696E-02 -0.2360413E-03  0.6587898E+02  0.1570822E+01  0.1023049E-03 -0.2772013E+01
  0.2100000E+00  0.5547968E+03 -0.1570757E+01  0.9842815E-03  0.6963999E-03  0.2000994E+05 -0.4664049E-03  0.3053546E-03 -0.4391911E-03  0.6916108E+02  0.1570824E+01  0.1960059E-03 -0.3029374E+01
  0.2200000E+00  0.5812757E+03 -0.1570752E+01  0.3917588E-04  0.6085888E-02  0.2000030E+05 -0.5123520E-03  0.3479868E-03  0.3141379E+01  0.7248430E+02  0.1570835E+01  0.2638468E-03 -0.6782386E-01
  0.2300000E+00  0.6078454E+03 -0.1570746E+01  0.8562064E-03  0.1148645E-02  0.1999046E+05 -0.5606138E-03  0.3147052E-02  0.7339186E-03  0.7574143E+02  0.1570846E+01  0.2177421E-03 -0.3079756E+01
  0.2400000E+00  0.6338797E+03 -0.1570740E+01  0.3516720E-04  0.3136508E+01  0.1998021E+05 -0.6111056E-03  0.1982033E-02  0.3141412E+01  0.7895885E+02  0.1570859E+01  0.4255956E-04  0.1327366E+00
  0.2500000E+00  0.6610833E+03 -0.1570737E+01  0.2723187E-03  0.5471914E-03  0.1996950E+05 -0.6638129E-03  0.1012146E-02 -0.3141342E+01  0.8242410E+02  0.1570847E+01  0.7274753E-04  0.2027996E-01
  0.2600000E+00  0.6874921E+03 -0.1570736E+01  0.5810754E-03  0.4000492E-02  0.1995836E+05 -0.7188430E-03  0.1148492E-02  0.9341670E-03  0.8574109E+02  0.1570863E+01  0.7684121E-04  0.2666237E+01
  0.2700000E+00  0.7141567E+03 -0.1570729E+01  0.6519258E-03 -0.3141319E+01  0.1994678E+05 -0.7761617E-03  0.1940727E-02  0.3141102E+01  0.8905761E+02  0.1570870E+01  0.4864888E-04 -0.8070585E+00
  0.2800000E+00  0.7412078E+03 -0.1570727E+01  0.2798736E-03 -0.3141592E+01  0.1993472E+05 -0.8358207E-03  0.5163850E-03 -0.3140727E+01  0.9245699E+02  0.1570867E+01  0.1040116E-03 -0.2819888E+01
  0.2900000E+00  0.7680910E+03 -0.1570711E+01  0.1073290E-03 -0.1416179E-01  0.1992218E+05 -0.8977546E-03  0.2074304E-02  0.3140013E+01  0.9585083E+02  0.1570878E+01  0.6460083E-04  0.3383459E+00
  0.3000000E+00  0.7950740E+03 -0.1570708E+01  0.4101262E-03  0.2761318E-02  0.1990940E+05 -0.9620124E-03  0.4165442E-02 -0.8156314E-03  0.9920798E+02  0.1570878E+01  0.8726098E-04 -0.3104699E+01
  0.3100000E+00  0.8220643E+03 -0.1570703E+01  0.2455149E-04 -0.8263721E-01  0.1989629E+05 -0.1028629E-02  0.8709208E-04  0.3011755E-01  0.1025205E+03  0.1570885E+01  0.1184765E-03  0.3090633E+01
  0.3200000E+00  0.8493346E+03 -0.1570700E+01  0.3311644E-03  0.3139253E+01  0.1988274E+05 -0.1097660E-02  0.8138752E-03  0.3138590E+01  0.1059233E+03  0.1570904E+01  0.3086716E-04  0.1824790E+01
  0.3300000E+00  0.8766028E+03 -0.1570690E+01  0.3129672E-04  0.4667723E-01  0.1986880E+05 -0.1169099E-02  0.2050430E-03 -0.3123714E+01  0.1093857E+03  0.1570897E+01  0.3342674E-04 -0.1393335E+01
  0.3400000E+00  0.9037435E+03 -0.1570688E+01  0.3719656E-03  0.3925947E-02  0.1985442E+05 -0.1243005E-02  0.9937289E-03  0.3140843E+01  0.1127916E+03  0.1570912E+01  0.8032611E-04 -0.2702836E+01
  0.3500000E+00  0.9309172E+03 -0.1570675E+01  0.8625984E-03 -0.3141213E+01  0.1983957E+05 -0.1319382E-02  0.1291454E-02 -0.3141315E+01  0.1161847E+03  0.1570916E+01  0.4364859E-04 -0.8750720E-01
  0.3600000E+00  0.9577607E+03 -0.1570669E+01  0.8597428E-03 -0.3501095E-02  0.1982430E+05 -0.1398278E-02  0.1346082E-02  0.3140663E+01  0.1195266E+03  0.1570921E+01  0.1630940E-03 -0.2945361E+01
  0.3700000E+00  0.9846578E+03 -0.1570659E+01  0.6054708E-03  0.4725303E-02  0.1980855E+05 -0.1479649E-02  0.7018149E-02  0.3141533E+01  0.1229244E+03  0.1570937E+01  0.5668950E-04  0.2404167E+01
  0.3800000E+00  0.1011546E+04 -0.1570653E+01  0.1384649E-02 -0.3139268E+01  0.1979237E+05 -0.1563416E-02  0.1991464E-03  0.3133062E+01  0.1263302E+03  0.1570937E+01  0.8404722E-04  0.5747528E-01
  0.3900000E+00  0.1038465E+04 -0.1570644E+01  0.1392306E-02 -0.3140479E+01  0.1977575E+05 -0.1649717E-02  0.1114435E-02 -0.3138116E+01  0.1297392E+03  0.1570947E+01  0.2751966E-03 -0.6612948E+00
  0.4000000E+00  0.1065424E+04 -0.1570637E+01  0.1859115E-03 -0.3134539E+01  0.1975909E+05 -0.1738468E-02  0.2083502E-03  0.4577289E-02  0.1330876E+03  0.1570954E+01  0.2171439E-03 -0.3105901E+01
  0.4100000E+00  0.1092426E+04 -0.1570628E+01  0.1160563E-02  0.1335316E-02  0.1974194E+05 -0.1829827E-02  0.1171915E-03  0.3129386E+01  0.1364261E+03  0.1570967E+01  0.3231479E-04  0.2550777E+01
  0.4200000E+00  0.1119757E+04 -0.1570620E+01  0.6699905E-03 -0.3137946E+01  0.1972440E+05 -0.1923843E-02  0.4889607E-02 -0.4876083E-04  0.1398425E+03  0.1570979E+01  0.3344362E-03 -0.2777701E+01
  0.4300000E+00  0.1147360E+04 -0.1570609E+01  0.6126508E-03  0.3137798E+01  0.1970647E+05 -0.2020532E-02  0.3913666E-03 -0.3579011E-02  0.1433523E+03  0.1570987E+01  0.6590175E-04 -0.1970492E+01
  0.4400000E+00  0.1175230E+04 -0.1570598E+01  0.6115463E-04  0.2923965E-02  0.1968807E+05 -0.2119935E-02  0.2976184E-02 -0.3139920E+01  0.1469020E+03  0.1570988E+01  0.5595391E-04 -0.1597869E-02
  0.4500000E+00  0.1202925E+04 -0.1570591E+01  0.7854226E-03 -0.3136053E+01  0.1966925E+05 -0.2222113E-02  0.5250127E-04  0.3048363E+01  0.1504017E+03  0.1571004E+01  0.5671362E-04 -0.8415357E+00
  0.4600000E+00  0.1230688E+04 -0.1570583E+01  0.2304324E-03  0.3139007E+01  0.1965009E+05 -0.2327089E-02  0.1738966E-02 -0.3140753E+01  0.1539029E+03  0.1571013E+01  0.1166428E-03  0.2386642E+01
  0.4700000E+00  0.1258460E+04 -0.1570572E+01  0.2521822E-03 -0.3120792E+01  0.1963042E+05 -0.2434934E-02  0.2336625E-02 -0.1683585E-02  0.1573929E+03  0.1571021E+01  0.1336477E-03  0.2564684E-01
  0.4800000E+00  0.1286244E+04 -0.1570562E+01  0.5429388E-03  0.3141372E+01  0.1961028E+05 -0.2545909E-02  0.9722850E-04 -0.1655289E-01  0.1608901E+03  0.1571032E+01  0.1222968E-03  0.6193004E+00
  0.4900000E+00  0.1314191E+04 -0.1570549E+01  0.2353268E-03  0.3133487E+01  0.1958975E+05 -0.2659278E-02  0.3301981E-02 -0.3140157E+01  0.1644374E+03  0.1571048E+01  0.7677812E-04 -0.8467810E+00
  0.5000000E+00  0.1342147E+04 -0.1570538E+01  0.1495301E-02 -0.3141393E+01  0.1956882E+05 -0.2775336E-02  0.2046049E-02 -0.3141185E+01  0.1679908E+03  0.1571057E+01  0.9999728E-04 -0.9706425E+00
  0.5100000E+00  0.1370035E+04 -0.1570524E+01  0.3120399E-03  0.3133761E+01  0.1954738E+05 -0.2894391E-02  0.3852728E-02  0.3140409E+01  0.1715357E+03  0.1571065E+01  0.1355637E-04  0.2725154E+01
  0.5200000E+00  0.1398013E+04 -0.1570514E+01  0.6189943E-03  0.3140918E+01  0.1952581E+05 -0.3016093E-02  0.1110438E-02  0.3139258E+01  0.1750529E+03  0.1571078E+01  0.5442013E-04 -0.1303104E+01
  0.5300000E+00  0.1426126E+04 -0.1570502E+01  0.1960939E-02 -0.2401283E-02  0.1950402E+05 -0.3140610E-02  0.1364053E-02 -0.7428446E-03  0.1785528E+03  0.1571089E+01  0.8591056E-04  0.1064473E+01
  0.5400000E+00  0.1454338E+04 -0.1570490E+01  0.1245430E-03  0.2153808E-01  0.1948181E+05 -0.3268217E-02  0.3580094E-02 -0.3141385E+01  0.1820556E+03  0.1571107E+01  0.8486627E-04  0.1119870E+01
  0.5500000E+00  0.1482531E+04 -0.1570477E+01  0.9159520E-03 -0.4034598E-02  0.1945907E+05 -0.3398895E-02  0.1389267E-02  0.3140070E+01  0.1855813E+03  0.1571116E+01  0.1703421E-04 -0.1187040E+01
  0.5600000E+00  0.1510852E+04 -0.1570463E+01  0.2447247E-03 -0.1972947E-01  0.1943609E+05 -0.3532657E-02  0.4159631E-02 -0.9457347E-03  0.1891880E+03  0.1571135E+01  0.2073912E-03 -0.6092073E+00
  0.5700001E+00  0.1539290E+04 -0.1570450E+01  0.2234579E-03  0.8002130E-03  0.1941266E+05 -0.3669703E-02  0.4417669E-02 -0.2219489E-02  0.1928423E+03  0.1571145E+01  0.1144815E-03  0.6943382E+00
  0.5800000E+00  0.1567633E+04 -0.1570432E+01  0.2955437E-03  0.3128886E+01  0.1938879E+05 -0.3809967E-02  0.1615600E-02 -0.4482538E-02  0.1964782E+03  0.1571160E+01  0.4405688E-04  0.1795922E+01
  0.5900000E+00  0.1595932E+04 -0.1570417E+01  0.2520686E-03 -0.3139464E+01  0.1936456E+05 -0.3953591E-02  0.3219872E-03 -0.3137335E+01  0.2000845E+03  0.1571169E+01  0.1202611E-03 -0.2007843E+01
  0.6000000E+00  0.1624290E+04 -0.1570405E+01  0.4938669E-04 -0.6159068E-01  0.1933987E+05 -0.4100638E-02  0.5094436E-03  0.1562007E-01  0.2036961E+03  0.1571190E+01  0.6265540E-04  0.2945316E+01
  0.6100000E+00  0.1652747E+04 -0.1570389E+01  0.1933339E-02  0.3139928E+01  0.1931472E+05 -0.4251216E-02  0.8200326E-03 -0.1646406E-01  0.2073222E+03  0.1571204E+01  0.2081724E-03  0.2589412E+01
  0.6200000E+00  0.1681169E+04 -0.1570371E+01  0.1629297E-02 -0.2085235E-02  0.1928921E+05 -0.4405449E-02  0.1475811E-02  0.1615673E-03  0.2109165E+03  0.1571222E+01  0.9995853E-04 -0.2239344E+01
  0.6300000E+00  0.1709643E+04 -0.1570354E+01  0.1006547E-02  0.3138928E+01  0.1926315E+05 -0.4563839E-02  0.2029073E-02  0.3138186E+01  0.2145365E+03  0.1571233E+01  0.2350648E-03  0.2542759E+01
  0.6400000E+00  0.1738438E+04 -0.1570338E+01  0.7476429E-03  0.3133939E+01  0.1923681E+05 -0.4724890E-02  0.3206375E-02  0.1264080E-02  0.2182279E+03  0.1571254E+01  0.4249986E-03  0.3126656E+01
  0.6500000E+00  0.1767326E+04 -0.1570321E+01  0.2059342E-03  0.1447176E-02  0.1921023E+05 -0.4888615E-02  0.3873220E-04 -0.1552818E+00  0.2219336E+03  0.1571270E+01  0.1324487E-03  0.1066318E+00
  0.6600000E+00  0.1796319E+04 -0.1570303E+01  0.2223678E-02  0.3138938E+01  0.1918278E+05 -0.5056143E-02  0.3915072E-02 -0.3140915E+01  0.2256591E+03  0.1571289E+01  0.1130015E-03  0.1925245E+01
  0.6700001E+00  0.1825516E+04 -0.1570285E+01  0.3891589E-03  0.3140674E+01  0.1915503E+05 -0.5227518E-02  0.1924338E-02 -0.3133570E+01  0.2294103E+03  0.1571304E+01  0.3173389E-03  0.2943552E+01
  0.6800001E+00  0.1855006E+04 -0.1570265E+01  0.1264932E-02 -0.1931955E-02  0.1912722E+05 -0.5401496E-02  0.4268648E-02  0.3140824E+01  0.2331589E+03  0.1571324E+01  0.1165411E-03 -0.2801889E+01
  0.6900001E+00  0.1884531E+04 -0.1570247E+01  0.6503793E-03 -0.1008123E-01  0.1909933E+05 -0.5578636E-02  0.2401835E-02  0.3139359E+01  0.2368890E+03  0.1571343E+01  0.1142251E-03  0.1492444E+01
  0.7000000E+00  0.1914215E+04 -0.1570229E+01  0.6414659E-03 -0.1579631E-02  0.1907129E+05 -0.5759627E-02  0.4172339E-02  0.2492852E-02  0.2406331E+03  0.1571369E+01  0.2092218E-03 -0.3633387E+00
  0.7100000E+00  0.1943998E+04 -0.1570207E+01  0.4317929E-03 -0.8834669E-02  0.1904249E+05 -0.5944596E-02  0.4082987E-03 -0.3135753E+01  0.2443833E+03  0.1571385E+01  0.1147796E-03 -0.1994372E+01
  0.7200000E+00  0.1973910E+04 -0.1570188E+01  0.9324650E-03  0.3136991E+01  0.1901342E+05 -0.6133463E-02  0.1364198E-02  0.3130407E+01  0.2481919E+03  0.1571403E+01  0.8132035E-04  0.3119602E+01
  0.7300000E+00  0.2003940E+04 -0.1570167E+01  0.2341271E-03  0.3140574E+01  0.1898390E+05 -0.6326400E-02  0.4974906E-03  0.3130570E+01  0.2520549E+03  0.1571424E+01  0.6295391E-04  0.1481679E+01
  0.7400000E+00  0.2034141E+04 -0.1570143E+01  0.8468960E-03  0.8868012E-02  0.1895363E+05 -0.6523467E-02  0.2664454E-03 -0.9731233E-02  0.2559781E+03  0.1571449E+01  0.3339345E-04 -0.2556313E+01
  0.7500000E+00  0.2064535E+04 -0.1570121E+01  0.2105302E-03 -0.3133665E+01  0.1892335E+05 -0.6724807E-02  0.1894973E-02  0.3136780E+01  0.2599356E+03  0.1571471E+01  0.6895530E-04  0.2445859E+01
  0.7600000E+00  0.2094830E+04 -0.1570098E+01  0.8820493E-03  0.3134903E+01  0.1889269E+05 -0.6930518E-02  0.2556809E-02 -0.2529368E-02  0.2638577E+03  0.1571496E+01  0.1346472E-03 -0.1194565E+01
  0.7700000E+00  0.2125050E+04 -0.1570074E+01  0.9027445E-03  0.3127331E+01  0.1886161E+05 -0.7140781E-02  0.2401141E-02 -0.3136777E+01  0.2677564E+03  0.1571520E+01  0.1678720E-03 -0.1136529E+01
  0.7800000E+00  0.2155285E+04 -0.1570047E+01  0.2016187E-02 -0.8868916E-03  0.1883011E+05 -0.7355614E-02  0.3567100E-02 -0.3140891E+01  0.2716541E+03  0.1571543E+01  0.7562737E-04  0.9939421E+00
  0.7900000E+00  0.2185613E+04 -0.1570025E+01  0.2094867E-02 -0.3140255E+01  0.1879823E+05 -0.7575277E-02  0.4518091E-03 -0.3136513E+01  0.2755658E+03  0.1571567E+01  0.1406777E-03 -0.9960736E+00
  0.8000000E+00  0.2216115E+04 -0.1569997E+01  0.5915987E-03  0.2609768E-01  0.1876587E+05 -0.7799936E-02  0.5894213E-03  0.3128497E+01  0.2794917E+03  0.1571595E+01  0.2108729E-03  0.2738278E+01
  0.8099999E+00  0.2246646E+04 -0.1569972E+01  0.8808598E-04  0.1030352E+00  0.1873315E+05 -0.8029804E-02  0.2544933E-02 -0.6464216E-02  0.2834020E+03  0.1571622E+01  0.6804794E-04 -0.1760929E+00
  0.8200001E+00  0.2277315E+04 -0.1569944E+01  0.1318599E-02 -0.3135445E+01  0.1869994E+05 -0.8266329E-02  0.2521248E-02  0.8463548E-02  0.2873637E+03  0.1571646E+01  0.2194912E-03  0.3092421E+01
  0.8300000E+00  0.2308130E+04 -0.1569916E+01  0.1680027E-02 -0.3512369E-02  0.1866634E+05 -0.8505614E-02  0.1857296E-02 -0.3137516E+01  0.2913649E+03  0.1571676E+01  0.2204961E-03 -0.1667486E+00
  0.8400000E+00  0.2339014E+04 -0.1569888E+01  0.8788110E-03  0.3140983E+01  0.1863238E+05 -0.8747141E-02  0.3458360E-03  0.3114272E+01  0.2953875E+03  0.1571707E+01  0.6976427E-04 -0.5091317E+00
  0.8500000E+00  0.2370025E+04 -0.1569858E+01  0.2743370E-03 -0.1629582E-01  0.1859799E+05 -0.8993900E-02  0.1845125E-02 -0.3139558E+01  0.2994334E+03  0.1571732E+01  0.1072412E-03 -0.6466135E+00
  0.8600000E+00  0.2401154E+04 -0.1569829E+01  0.1107337E-02 -0.1991602E-02  0.1856314E+05 -0.9246171E-02  0.5199047E-03  0.3117400E+01  0.3034975E+03  0.1571765E+01  0.8625515E-04  0.2492702E+01
  0.8700000E+00  0.2432433E+04 -0.1569797E+01  0.1487564E-02 -0.3131816E+01  0.1852776E+05 -0.9504366E-02  0.5202341E-02  0.4302219E-02  0.3075878E+03  0.1571794E+01  0.2172732E-03  0.2678313E+01
  0.8800000E+00  0.2463734E+04 -0.1569765E+01  0.1291394E-02 -0.2769315E-03  0.1849256E+05 -0.9763790E-02  0.2138884E-02  0.5378369E-02  0.3116392E+03  0.1571829E+01  0.3832147E-03 -0.3021540E+01
  0.8900001E+00  0.2495237E+04 -0.1569733E+01  0.2720358E-03  0.5129327E-01  0.1845731E+05 -0.1002660E-01  0.1787758E-02  0.3131273E+01  0.3156910E+03  0.1571859E+01  0.1180516E-03 -0.1506629E+01
  0.9000000E+00  0.2526854E+04 -0.1569701E+01  0.1128001E-02 -0.3132980E+01  0.1842170E+05 -0.1029493E-01  0.4019499E-02 -0.3141526E+01  0.3197524E+03  0.1571892E+01  0.5256896E-03  0.9341891E+00
  0.9100001E+00  0.2558627E+04 -0.1569665E+01  0.2155803E-02  0.3137086E+01  0.1838565E+05 -0.1056865E-01  0.2729428E-02 -0.3138623E+01  0.3238304E+03  0.1571929E+01  0.3065082E-03 -0.1547847E+01
  0.9200000E+00  0.2590554E+04 -0.1569631E+01  0.1085783E-02  0.6697306E-02  0.1834938E+05 -0.1084793E-01  0.2545216E-02  0.8746845E-02  0.3279260E+03  0.1571964E+01  0.7096118E-04  0.7033421E+00
  0.9300001E+00  0.2622714E+04 -0.1569594E+01  0.5701631E-03 -0.3122461E+01  0.1831269E+05 -0.1113297E-01  0.4518370E-02 -0.3134976E+01  0.3321025E+03  0.1572002E+01  0.1246730E-03  0.1100414E+01
  0.9400001E+00  0.2654994E+04 -0.1569557E+01  0.8939742E-03 -0.3134325E+01  0.1827536E+05 -0.1142365E-01  0.4732724E-03  0.6989811E-02  0.3363269E+03  0.1572037E+01  0.4728554E-04 -0.2752426E+01
  0.9500000E+00  0.2687485E+04 -0.1569519E+01  0.7721250E-03 -0.3137501E+01  0.1823790E+05 -0.1172028E-01  0.2918741E-02  0.3137763E+01  0.3406169E+03  0.1572074E+01  0.6354402E-04 -0.2617503E+01
  0.9600000E+00  0.2720167E+04 -0.1569479E+01  0.2814853E-03  0.3097746E+01  0.1820002E+05 -0.1202333E-01  0.1830622E-02 -0.3134624E+01  0.3449477E+03  0.1572114E+01  0.3173213E-03  0.1099966E+01
  0.9700000E+00  0.2753301E+04 -0.1569438E+01  0.3023187E-03  0.3092678E+01  0.1816190E+05 -0.1233194E-01  0.3206492E-02 -0.6227228E-03  0.3493383E+03  0.1572157E+01  0.1556813E-03 -0.6431949E+00
  0.9800000E+00  0.2786225E+04 -0.1569398E+01  0.3644905E-04  0.3071218E+01  0.1812303E+05 -0.1264758E-01  0.2112676E-02  0.6771140E-02  0.3536822E+03  0.1572193E+01  0.1165582E-03 -0.2668797E+01
  0.9900000E+00  0.2819293E+04 -0.1569353E+01  0.3718578E-03 -0.3126204E+01  0.1808401E+05 -0.1296984E-01  0.5444898E-03 -0.3115865E+01  0.3580295E+03  0.1572239E+01  0.3191232E-04 -0.3013299E+01
  0.1000000E+01  0.2852613E+04 -0.1569310E+01  0.3799101E-03  0.3467996E-01  0.1804461E+05 -0.1329912E-01  0.2492706E-02  0.5631217E-02  0.3624099E+03  0.1572282E+01  0.2081546E-03 -0.2159435E+01
  0.1010000E+01  0.2886229E+04 -0.1569264E+01  0.6074910E-03  0.3140317E+01  0.1800464E+05 -0.1363556E-01  0.9093508E-03  0.7013519E-02  0.3668294E+03  0.1572329E+01  0.1951770E-03 -0.2711274E+01
  0.1020000E+01  0.2920219E+04 -0.1569219E+01  0.3234353E-04  0.3695554E+00  0.1796453E+05 -0.1397984E-01  0.1376553E-02 -0.3117450E+01  0.3712981E+03  0.1572377E+01  0.2081592E-03  0.2422655E+01
  0.1030000E+01  0.2954184E+04 -0.1569170E+01  0.4285880E-03  0.3082591E+01  0.1792393E+05 -0.1433182E-01  0.1195034E-02 -0.3129996E+01  0.3757401E+03  0.1572422E+01  0.3057579E-03  0.1898064E+01
  0.1040000E+01  0.2988303E+04 -0.1569121E+01  0.1770973E-02  0.7404416E-03  0.1788294E+05 -0.1469247E-01  0.3514069E-02 -0.3138438E+01  0.3802026E+03  0.1572473E+01  0.1224958E-03 -0.2133290E+01
  0.1050000E+01  0.3022657E+04 -0.1569071E+01  0.5888941E-03  0.3140885E+01  0.1784145E+05 -0.1506458E-01  0.3708295E-03 -0.3119731E+01  0.3847368E+03  0.1572520E+01  0.4491779E-04 -0.2841874E+01
  0.1060000E+01  0.3057266E+04 -0.1569020E+01  0.6855141E-03 -0.3128289E+01  0.1779964E+05 -0.1544141E-01  0.1719955E-02 -0.3139635E+01  0.3893275E+03  0.1572574E+01  0.1703829E-03 -0.2446855E+01
  0.1070000E+01  0.3092028E+04 -0.1568966E+01  0.1672553E-03  0.3103095E+01  0.1775763E+05 -0.1581761E-01  0.2732283E-02 -0.3139575E+01  0.3939512E+03  0.1572626E+01  0.1092322E-03  0.1783014E+01
  0.1080000E+01  0.3126922E+04 -0.1568913E+01  0.1385406E-03 -0.1185917E+00  0.1771507E+05 -0.1620195E-01  0.2146896E-02  0.1274363E-01  0.3986001E+03  0.1572682E+01  0.3702831E-04 -0.4766057E+00
  0.1090000E+01  0.3161983E+04 -0.1568855E+01  0.4396595E-03 -0.4733162E-01  0.1767204E+05 -0.1659494E-01  0.1003135E-02  0.3126946E+01  0.4032802E+03  0.1572739E+01  0.3500231E-04  0.2928834E+01
  0.1100000E+01  0.3197261E+04 -0.1568798E+01  0.3108472E-03  0.5237143E-01  0.1762854E+05 -0.1699746E-01  0.4795371E-03 -0.3062270E+01  0.4079934E+03  0.1572796E+01  0.1205360E-03  0.5346950E+00
  0.1110000E+01  0.3232701E+04 -0.1568739E+01  0.8857338E-03 -0.2362242E-01  0.1758451E+05 -0.1741044E-01  0.3263998E-03 -0.1836429E+00  0.4127349E+03  0.1572854E+01  0.7754469E-04  0.1331783E+01
  0.1120000E+01  0.3268365E+04 -0.1568676E+01  0.1349380E-02 -0.1581420E-01  0.1754099E+05 -0.1781967E-01  0.3517246E-02 -0.3134247E+01  0.4174597E+03  0.1572916E+01  0.3021925E-03  0.1409944E+01
  0.1130000E+01  0.3304593E+04 -0.1568616E+01  0.1889529E-02 -0.8075533E-02  0.1749748E+05 -0.1822962E-01  0.5693107E-03  0.4896493E-01  0.4222260E+03  0.1572979E+01  0.5578638E-04 -0.2769816E+01
  0.1140000E+01  0.3340599E+04 -0.1568551E+01  0.4919399E-03  0.3105479E+01  0.1745372E+05 -0.1864862E-01  0.1705331E-02 -0.3109536E+01  0.4269595E+03  0.1573041E+01  0.5862419E-04 -0.3056594E+01
  0.1150000E+01  0.3376717E+04 -0.1568487E+01  0.3414888E-04 -0.2928793E+01  0.1740963E+05 -0.1907619E-01  0.1743509E-02  0.1487169E-01  0.4316990E+03  0.1573106E+01  0.7562430E-04 -0.1385303E+01
  0.1160000E+01  0.3413015E+04 -0.1568420E+01  0.4104476E-04 -0.3451730E+00  0.1736524E+05 -0.1951243E-01  0.2433176E-02  0.9731431E-02  0.4364568E+03  0.1573173E+01  0.6352035E-04  0.1273677E+01
  0.1170000E+01  0.3449542E+04 -0.1568351E+01  0.7135529E-04  0.2953371E+01  0.1732035E+05 -0.1995732E-01  0.1167297E-02  0.3141503E+01  0.4412430E+03  0.1573244E+01  0.3341931E-04 -0.1255247E+01
  0.1180000E+01  0.3486490E+04 -0.1568278E+01  0.1494884E-02 -0.3141393E+01  0.1727523E+05 -0.2041094E-01  0.1059039E-02  0.3112111E+01  0.4461589E+03  0.1573313E+01  0.1672028E-03  0.3490910E+00
  0.1190000E+01  0.3523694E+04 -0.1568207E+01  0.1081968E-02 -0.3134927E+01  0.1722983E+05 -0.2087357E-01  0.2824405E-02  0.8330679E-02  0.4511372E+03  0.1573386E+01  0.6333627E-04  0.6743736E+00
  0.1200000E+01  0.3561168E+04 -0.1568131E+01  0.1435210E-02 -0.1532526E-01  0.1718412E+05 -0.2134533E-01  0.1447044E-02  0.3130965E+01  0.4561895E+03  0.1573460E+01  0.1031597E-03 -0.8822740E-01
  0.1210000E+01  0.3598917E+04 -0.1568054E+01  0.1581670E-02  0.6783235E-03  0.1713801E+05 -0.2182675E-01  0.2202989E-02 -0.8184521E-03  0.4613055E+03  0.1573539E+01  0.1145855E-03  0.3120524E+01
  0.1220000E+01  0.3636960E+04 -0.1567974E+01  0.5312496E-03  0.1413730E-01  0.1709158E+05 -0.2231800E-01  0.3287864E-02  0.3127868E+01  0.4664719E+03  0.1573619E+01  0.1518586E-03  0.4373147E+00
  0.1230000E+01  0.3674886E+04 -0.1567893E+01  0.1616955E-02  0.3141445E+01  0.1704479E+05 -0.2281947E-01  0.1261048E-02 -0.3106715E+01  0.4716104E+03  0.1573702E+01  0.1218467E-03  0.3000733E+01
  0.1240000E+01  0.3713000E+04 -0.1567808E+01  0.2197755E-04  0.1890832E+01  0.1699778E+05 -0.2333157E-01  0.1107211E-02  0.4631307E-01  0.4767684E+03  0.1573787E+01  0.1937252E-03  0.1591105E+01
  0.1250000E+01  0.3751249E+04 -0.1567722E+01  0.8875452E-04 -0.2930499E+01  0.1695035E+05 -0.2385472E-01  0.2575835E-02 -0.3129148E+01  0.4819250E+03  0.1573873E+01  0.3819389E-03  0.1455055E+01
  0.1260000E+01  0.3789713E+04 -0.1567631E+01  0.4142466E-04  0.4559256E+00  0.1690258E+05 -0.2438931E-01  0.3469068E-02 -0.6685898E-02  0.4871115E+03  0.1573964E+01  0.3891131E-03 -0.3033312E+01
  0.1270000E+01  0.3828486E+04 -0.1567538E+01  0.2323772E-02  0.1115796E-01  0.1685457E+05 -0.2493578E-01  0.1662108E-02 -0.3102275E+01  0.4923461E+03  0.1574057E+01  0.7924447E-04 -0.1426420E+00
  0.1280000E+01  0.3867433E+04 -0.1567442E+01  0.1075573E-03 -0.3117761E+01  0.1680610E+05 -0.2549487E-01  0.2198727E-02  0.3136245E+01  0.4976113E+03  0.1574152E+01  0.2130302E-03  0.1026730E+01
  0.1290000E+01  0.3906569E+04 -0.1567343E+01  0.3252253E-03 -0.3129863E+01  0.1675725E+05 -0.2606697E-01  0.6118455E-03  0.1439397E-01  0.5028850E+03  0.1574250E+01  0.1049229E-03  0.5529389E+00
  0.1300000E+01  0.3945903E+04 -0.1567244E+01  0.1921667E-03 -0.3091634E+01  0.1670821E+05 -0.2665257E-01  0.2251347E-02 -0.3128301E+01  0.5081668E+03  0.1574350E+01  0.7663690E-04 -0.2737109E+01
  0.1310000E+01  0.3985412E+04 -0.1567140E+01  0.8450920E-04 -0.3090789E+01  0.1665845E+05 -0.2725525E-01  0.2864914E-03  0.5212701E-01  0.5134752E+03  0.1574451E+01  0.2538680E-03 -0.2153004E+01
  0.1320000E+01  0.4025357E+04 -0.1567035E+01  0.7669933E-03  0.3140271E+01  0.1660864E+05 -0.2787893E-01  0.2317959E-03 -0.3120200E+01  0.5189204E+03  0.1574558E+01  0.2093613E-03  0.9650267E+00
  0.1330000E+01  0.4065605E+04 -0.1566926E+01  0.2030025E-02  0.1130441E-01  0.1655834E+05 -0.2850191E-01  0.3708823E-02 -0.1575580E-01  0.5244203E+03  0.1574668E+01  0.6490209E-04  0.9827933E+00
  0.1340000E+01  0.4106048E+04 -0.1566813E+01  0.1125976E-02 -0.3950052E-01  0.1650783E+05 -0.2912610E-01  0.2487215E-02  0.3113428E+01  0.5299531E+03  0.1574780E+01  0.7452250E-04  0.7718241E+00
  0.1350000E+01  0.4146767E+04 -0.1566698E+01  0.1009487E-02  0.3134862E+01  0.1645669E+05 -0.2976479E-01  0.5287480E-03  0.3102094E+01  0.5355350E+03  0.1574898E+01  0.1314296E-03  0.2487570E+01
  0.1360000E+01  0.4187719E+04 -0.1566578E+01  0.3428471E-03 -0.3104205E+01  0.1640537E+05 -0.3041904E-01  0.3934622E-02 -0.3130577E+01  0.5411558E+03  0.1575018E+01  0.7573313E-04  0.2006282E+01
  0.1370000E+01  0.4228889E+04 -0.1566455E+01  0.6013672E-03  0.3109276E+01  0.1635340E+05 -0.3109019E-01  0.4177105E-02 -0.2304505E-02  0.5468134E+03  0.1575140E+01  0.3621034E-03  0.1093272E+01
  0.1380000E+01  0.4270406E+04 -0.1566327E+01  0.1740009E-02  0.5926213E-02  0.1630103E+05 -0.3178102E-01  0.9642668E-03 -0.3069766E+01  0.5525294E+03  0.1575268E+01  0.4853554E-04  0.1269047E+01
  0.1390000E+01  0.4312564E+04 -0.1566198E+01  0.1239820E-02  0.3133228E+01  0.1624850E+05 -0.3248642E-01  0.6216785E-03  0.6501441E-01  0.5583314E+03  0.1575397E+01  0.1697456E-03 -0.8375636E+00
  0.1400000E+01  0.4354896E+04 -0.1566067E+01  0.1259614E-02 -0.3132791E+01  0.1619753E+05 -0.3314782E-01  0.2252650E-02 -0.7951241E-02  0.5640482E+03  0.1575530E+01  0.5420662E-04 -0.2627765E+01
  0.1410000E+01  0.4397505E+04 -0.1565930E+01  0.4926838E-03 -0.8503000E-01  0.1614630E+05 -0.3382567E-01  0.2388299E-02 -0.3125800E+01  0.5697951E+03  0.1575666E+01  0.1797737E-03  0.2521170E+01
  0.1420000E+01  0.4440500E+04 -0.1565792E+01  0.1289899E-03  0.3080096E+01  0.1609476E+05 -0.3451836E-01  0.7539206E-03  0.3061360E+01  0.5755936E+03  0.1575803E+01  0.1307105E-03  0.1978742E+01
  0.1430000E+01  0.4483925E+04 -0.1565649E+01  0.2522846E-03 -0.3094796E+01  0.1604303E+05 -0.3522579E-01  0.1010877E-02 -0.3088723E+01  0.5814408E+03  0.1575946E+01  0.1380996E-03  0.2181774E+00
  0.1440000E+01  0.4527705E+04 -0.1565502E+01  0.6715284E-03  0.5052575E-01  0.1599093E+05 -0.3594739E-01  0.3336228E-02  0.3120367E+01  0.5873228E+03  0.1576092E+01  0.3588998E-03  0.1145928E+01
  0.1450000E+01  0.4572238E+04 -0.1565352E+01  0.1819180E-02 -0.3134466E+01  0.1593820E+05 -0.3668313E-01  0.1504302E-02 -0.4875537E-01  0.5932963E+03  0.1576244E+01  0.1993461E-03  0.8631758E+00
  0.1460000E+01  0.4617221E+04 -0.1565196E+01  0.1459388E-03  0.3081314E+01  0.1588596E+05 -0.3743269E-01  0.6443079E-02  0.1284531E-01  0.5994065E+03  0.1576401E+01  0.4585981E-03  0.1473685E+01
  0.1470000E+01  0.4662496E+04 -0.1565037E+01  0.1614194E-03  0.2944993E+01  0.1583301E+05 -0.3819626E-01  0.2277004E-02 -0.3118974E+01  0.6056287E+03  0.1576559E+01  0.3816595E-03 -0.1444271E+01
  0.1480000E+01  0.4708131E+04 -0.1564872E+01  0.1190028E-03  0.3074175E+01  0.1577869E+05 -0.3897395E-01  0.1318339E-02 -0.3041791E+01  0.6119274E+03  0.1576724E+01  0.5578364E-03  0.1886296E+01
  0.1490000E+01  0.4754310E+04 -0.1564702E+01  0.5414439E-04  0.1663400E+01  0.1572653E+05 -0.3976721E-01  0.1157007E-02 -0.3122994E+01  0.6183578E+03  0.1576895E+01  0.6085582E-03 -0.1544936E+01
  0.1500000E+01  0.4800792E+04 -0.1564528E+01  0.3950601E-03  0.3140008E+01  0.1567217E+05 -0.4057591E-01  0.1982394E-02  0.3107746E+01  0.6248407E+03  0.1577069E+01  0.1698452E-03 -0.3142319E+00
  0.1510000E+01  0.4847822E+04 -0.1564347E+01  0.9363810E-04 -0.2876234E+01  0.1561753E+05 -0.4140053E-01  0.2713220E-03  0.2522249E+00  0.6314147E+03  0.1577250E+01  0.3084300E-03  0.1701809E+01
  0.1520000E+01  0.4894647E+04 -0.1564162E+01  0.6338709E-04  0.2732623E+00  0.1556510E+05 -0.4224177E-01  0.3167788E-02  0.3131583E+01  0.6379344E+03  0.1577435E+01  0.2470200E-03 -0.2077162E+01
  0.1530000E+01  0.4941706E+04 -0.1563970E+01  0.6397378E-04 -0.3009841E+01  0.1550989E+05 -0.4310051E-01  0.2404853E-02 -0.1166166E-01  0.6444752E+03  0.1577627E+01  0.1713217E-03 -0.2611615E+01
  0.1540000E+01  0.4989087E+04 -0.1563773E+01  0.8826600E-03  0.8846341E-02  0.1545533E+05 -0.4397711E-01  0.4608428E-02 -0.1090344E-01  0.6510463E+03  0.1577825E+01  0.2817538E-03  0.2058240E+01
  0.1550000E+01  0.5036829E+04 -0.1563570E+01  0.7898662E-03  0.2381042E-01  0.1540109E+05 -0.4487213E-01  0.2495956E-03  0.2605474E+01  0.6576712E+03  0.1578029E+01  0.3287374E-03  0.2072827E+01
  0.1560000E+01  0.5084944E+04 -0.1563360E+01  0.1074037E-02 -0.3095237E+01  0.1534590E+05 -0.4578677E-01  0.1368003E-02 -0.2518643E-01  0.6643497E+03  0.1578238E+01  0.3338482E-03 -0.1458079E+01
  0.1570000E+01  0.5133562E+04 -0.1563144E+01  0.8888599E-03 -0.3132640E+01  0.1529080E+05 -0.4672192E-01  0.3066107E-03 -0.2677510E+01  0.6711069E+03  0.1578455E+01  0.2788471E-03 -0.1142263E+01
  0.1580000E+01  0.5182638E+04 -0.1562921E+01  0.9466636E-05  0.2706106E+01  0.1523549E+05 -0.4767833E-01  0.4918742E-04  0.3087035E+01  0.6779094E+03  0.1578678E+01  0.6473635E-03  0.2019146E+01
  0.1590000E+01  0.5231709E+04 -0.1562692E+01  0.4440990E-04 -0.3087882E+01  0.1517981E+05 -0.4865697E-01  0.3812411E-02 -0.3134448E+01  0.6846782E+03  0.1578906E+01  0.3636659E-03 -0.1503218E+01
  0.1600000E+01  0.5281019E+04 -0.1562457E+01  0.6172841E-03 -0.3078957E+01  0.1512326E+05 -0.4966083E-01  0.9055916E-03 -0.3093856E+01  0.6914823E+03  0.1579141E+01  0.5182623E-03  0.9665491E+00
  0.1610000E+01  0.5330619E+04 -0.1562215E+01  0.3120421E-04  0.7245801E+00  0.1506809E+05 -0.5069644E-01  0.3255422E-02 -0.3135807E+01  0.6983972E+03  0.1579382E+01  0.5868672E-03  0.1710187E+01
  0.1620000E+01  0.5380651E+04 -0.1561966E+01  0.7047912E-03  0.3103823E+01  0.1501108E+05 -0.5176034E-01  0.3272987E-02  0.3124947E+01  0.7054179E+03  0.1579631E+01  0.4012089E-03 -0.5071292E+00
  0.1630000E+01  0.5431059E+04 -0.1561709E+01  0.5496516E-03 -0.3492503E-01  0.1495431E+05 -0.5280483E-01  0.1332291E-02  0.3103601E+01  0.7125009E+03  0.1579889E+01  0.3171731E-03 -0.1823803E+01
  0.1640000E+01  0.5482045E+04 -0.1561445E+01  0.1002251E-02 -0.2880271E-01  0.1489733E+05 -0.5387203E-01  0.4997254E-03  0.3141235E+01  0.7196844E+03  0.1580153E+01  0.5494864E-03  0.1266747E+01
  0.1650000E+01  0.5533335E+04 -0.1561172E+01  0.6428284E-03  0.3085652E+01  0.1483991E+05 -0.5496651E-01  0.4084295E-03  0.3027809E+01  0.7269145E+03  0.1580428E+01  0.5386196E-03  0.4691904E+00