 VARIABLES="Time (s)"
"AddedMass    1" "IRF    1"
"AddedMass    2" "IRF    2"
"AddedMass    3" "IRF    3"
"AddedMass    4" "IRF    4"
"AddedMass    5" "IRF    5"
"AddedMass    6" "IRF    6"
Zone t="DoF    1",I=   100,F=POINT
  0.0000000E+00  0.3574445E+03  0.1150068E+05 -0.3958270E-09  0.1143556E-06  0.7525685E-05  0.2323567E-03  0.5604188E-09 -0.4431531E-07 -0.7540745E+02 -0.1598888E+04 -0.1154362E-06 -0.1341079E-04
  0.1000000E+00  0.3574445E+03  0.9003093E+04 -0.3958270E-09  0.8202930E-07  0.7525685E-05  0.2217600E-03  0.5604188E-09 -0.4413260E-07 -0.7540745E+02 -0.1302622E+04 -0.1154362E-06 -0.1353549E-04
  0.2000000E+00  0.3574445E+03  0.3578107E+04 -0.3958270E-09  0.8049112E-08  0.7525685E-05  0.1881527E-03  0.5604188E-09 -0.4551928E-07 -0.7540745E+02 -0.6088239E+03 -0.1154362E-06 -0.1243379E-04
  0.3000000E+00  0.3574445E+03 -0.1311963E+04 -0.3958270E-09 -0.2894035E-07  0.7525685E-05  0.1364471E-03  0.5604188E-09 -0.5002301E-07 -0.7540745E+02  0.1091572E+03 -0.1154362E-06 -0.7091508E-05
  0.4000000E+00  0.3574445E+03 -0.4224501E+04 -0.3958270E-09 -0.3161819E-07  0.7525685E-05  0.8492335E-04  0.5604188E-09 -0.5217822E-07 -0.7540745E+02  0.6105069E+03 -0.1154362E-06  0.1698260E-05
  0.5000000E+00  0.3574445E+03 -0.5304630E+04 -0.3958270E-09 -0.8183621E-07  0.7525685E-05  0.4466722E-04  0.5604188E-09 -0.4080959E-07 -0.7540745E+02  0.8334257E+03 -0.1154362E-06  0.9424940E-05
  0.6000000E+00  0.3574445E+03 -0.5155150E+04 -0.3958270E-09 -0.1301781E-06  0.7525685E-05  0.1089721E-04  0.5604188E-09 -0.1235433E-07 -0.7540745E+02  0.8282673E+03 -0.1154362E-06  0.1122605E-04
  0.7000000E+00  0.3574445E+03 -0.4297343E+04 -0.3958270E-09 -0.1393970E-06  0.7525685E-05 -0.1707219E-04  0.5604188E-09  0.2565717E-07 -0.7540745E+02  0.6818008E+03 -0.1154362E-06  0.7998804E-05
  0.8000000E+00  0.3574445E+03 -0.3048897E+04 -0.3958270E-09 -0.1628548E-06  0.7525685E-05 -0.3296990E-04  0.5604188E-09  0.6598117E-07 -0.7540745E+02  0.4693045E+03 -0.1154362E-06  0.6185096E-05
  0.9000000E+00  0.3574445E+03 -0.1761542E+04 -0.3958270E-09 -0.1690597E-06  0.7525685E-05 -0.4330499E-04  0.5604188E-09  0.1005612E-06 -0.7540745E+02  0.2526615E+03 -0.1154362E-06  0.7979364E-05
  0.1000000E+01  0.3574445E+03 -0.5755170E+03 -0.3958270E-09 -0.1068066E-06  0.7525685E-05 -0.5871099E-04  0.5604188E-09  0.1180390E-06 -0.7540745E+02  0.6287143E+02 -0.1154362E-06  0.1119832E-04
  0.1100000E+01  0.3574445E+03  0.4372194E+03 -0.3958270E-09  0.5875307E-07  0.7525685E-05 -0.7088287E-04  0.5604188E-09  0.1119915E-06 -0.7540745E+02 -0.8901874E+02 -0.1154362E-06  0.1350757E-04
  0.1200000E+01  0.3574445E+03  0.1179399E+04 -0.3958270E-09  0.2869916E-06  0.7525685E-05 -0.7395039E-04  0.5604188E-09  0.8437292E-07 -0.7540745E+02 -0.1981666E+03 -0.1154362E-06  0.1126797E-04
  0.1300000E+01  0.3574445E+03  0.1650103E+04 -0.3958270E-09  0.4237407E-06  0.7525685E-05 -0.7515816E-04  0.5604188E-09  0.4234198E-07 -0.7540745E+02 -0.2640962E+03 -0.1154362E-06  0.2489309E-05
  0.1400000E+01  0.3574445E+03  0.1829758E+04 -0.3958270E-09  0.4460020E-06  0.7525685E-05 -0.7723279E-04  0.5604188E-09 -0.4659713E-08 -0.7540745E+02 -0.2849648E+03 -0.1154362E-06 -0.6148048E-05
  0.1500000E+01  0.3574445E+03  0.1714428E+04 -0.3958270E-09  0.3996259E-06  0.7525685E-05 -0.8040619E-04  0.5604188E-09 -0.4508545E-07 -0.7540745E+02 -0.2629976E+03 -0.1154362E-06 -0.1069792E-04
  0.1600000E+01  0.3574445E+03  0.1383602E+04 -0.3958270E-09  0.2605124E-06  0.7525685E-05 -0.8826939E-04  0.5604188E-09 -0.7261617E-07 -0.7540745E+02 -0.2090538E+03 -0.1154362E-06 -0.1542962E-04
  0.1700000E+01  0.3574445E+03  0.9761527E+03 -0.3958270E-09  0.8379394E-07  0.7525685E-05 -0.1045659E-03  0.5604188E-09 -0.8518818E-07 -0.7540745E+02 -0.1403244E+03 -0.1154362E-06 -0.1965258E-04
  0.1800000E+01  0.3574445E+03  0.5751669E+03 -0.3958270E-09 -0.1015220E-06  0.7525685E-05 -0.1204798E-03  0.5604188E-09 -0.8183575E-07 -0.7540745E+02 -0.7240710E+02 -0.1154362E-06 -0.2005226E-04
  0.1900000E+01  0.3574445E+03  0.2552849E+03 -0.3958270E-09 -0.3332766E-06  0.7525685E-05 -0.1150702E-03  0.5604188E-09 -0.6552973E-07 -0.7540745E+02 -0.1937448E+02 -0.1154362E-06 -0.1807160E-04
  0.2000000E+01  0.3574445E+03  0.2477634E+02 -0.3958270E-09 -0.5168345E-06  0.7525685E-05 -0.8339041E-04  0.5604188E-09 -0.3910442E-07 -0.7540745E+02  0.1521774E+02 -0.1154362E-06 -0.1376835E-04
  0.2100000E+01  0.3574445E+03 -0.2740988E+03 -0.3958270E-09 -0.5754777E-06  0.7525685E-05 -0.4931421E-04  0.5604188E-09 -0.8700974E-08 -0.7540745E+02  0.4866499E+02 -0.1154362E-06 -0.2582921E-05
  0.2200000E+01  0.3574445E+03 -0.6452346E+03 -0.3958270E-09 -0.5149932E-06  0.7525685E-05 -0.3322229E-04  0.5604188E-09  0.1625085E-07 -0.7540745E+02  0.9167329E+02 -0.1154362E-06  0.1629511E-04
  0.2300000E+01  0.3574445E+03 -0.9355857E+03 -0.3958270E-09 -0.3148507E-06  0.7525685E-05 -0.3021885E-04  0.5604188E-09  0.2712215E-07 -0.7540745E+02  0.1308901E+03 -0.1154362E-06  0.3498269E-04
  0.2400000E+01  0.3574445E+03 -0.9155797E+03 -0.3958270E-09 -0.1024169E-06  0.7525685E-05 -0.2831533E-04  0.5604188E-09  0.1941401E-07 -0.7540745E+02  0.1345679E+03 -0.1154362E-06  0.3901331E-04
  0.2500000E+01  0.3574445E+03 -0.5069342E+03 -0.3958270E-09  0.1846803E-07  0.7525685E-05 -0.1247901E-04  0.5604188E-09  0.1741006E-08 -0.7540745E+02  0.8626591E+02 -0.1154362E-06  0.2264910E-04
  0.2600000E+01  0.3574445E+03 -0.2360819E+02 -0.3958270E-09  0.1422419E-06  0.7525685E-05  0.2869625E-04  0.5604188E-09 -0.9780017E-08 -0.7540745E+02  0.1420698E+02 -0.1154362E-06 -0.3587836E-06
  0.2700000E+01  0.3574445E+03  0.1117026E+03 -0.3958270E-09  0.2506194E-06  0.7525685E-05  0.6981193E-04  0.5604188E-09 -0.9553685E-08 -0.7540745E+02 -0.2267128E+02 -0.1154362E-06 -0.1458330E-04
  0.2800000E+01  0.3574445E+03 -0.8592581E+02 -0.3958270E-09  0.2952241E-06  0.7525685E-05  0.6878432E-04  0.5604188E-09 -0.1561502E-08 -0.7540745E+02 -0.5205778E+01 -0.1154362E-06 -0.1395852E-04
  0.2900000E+01  0.3574445E+03 -0.1607301E+03 -0.3958270E-09  0.3317944E-06  0.7525685E-05  0.4177653E-04  0.5604188E-09  0.1130029E-07 -0.7540745E+02  0.1357002E+02 -0.1154362E-06 -0.2833083E-05
  0.3000000E+01  0.3574445E+03  0.1179878E+03 -0.3958270E-09  0.3564218E-06  0.7525685E-05  0.4415596E-04  0.5604188E-09  0.2644746E-07 -0.7540745E+02 -0.1231894E+02 -0.1154362E-06  0.7281978E-05
  0.3100000E+01  0.3574445E+03  0.3062611E+03 -0.3958270E-09  0.3544112E-06  0.7525685E-05  0.6330556E-04  0.5604188E-09  0.4080421E-07 -0.7540745E+02 -0.4113952E+02 -0.1154362E-06  0.6621538E-05
  0.3200000E+01  0.3574445E+03  0.5319758E+02 -0.3958270E-09  0.3187933E-06  0.7525685E-05  0.4051748E-04  0.5604188E-09  0.5231627E-07 -0.7540745E+02 -0.1770912E+02 -0.1154362E-06 -0.6527608E-05
  0.3300000E+01  0.3574445E+03 -0.1612760E+03 -0.3958270E-09  0.2220075E-06  0.7525685E-05 -0.1072022E-04  0.5604188E-09  0.5615882E-07 -0.7540745E+02  0.1729021E+02 -0.1154362E-06 -0.2327928E-04
  0.3400000E+01  0.3574445E+03  0.1047991E+03 -0.3958270E-09  0.1015477E-06  0.7525685E-05 -0.2301686E-04  0.5604188E-09  0.4753678E-07 -0.7540745E+02 -0.5358755E+01 -0.1154362E-06 -0.3032554E-04
  0.3500000E+01  0.3574445E+03  0.3963200E+03 -0.3958270E-09 -0.4281019E-07  0.7525685E-05 -0.4281167E-05  0.5604188E-09  0.2625963E-07 -0.7540745E+02 -0.4741839E+02 -0.1154362E-06 -0.2243102E-04
  0.3600000E+01  0.3574445E+03  0.2434864E+03 -0.3958270E-09 -0.2514169E-06  0.7525685E-05 -0.4700677E-05  0.5604188E-09 -0.3152091E-08 -0.7540745E+02 -0.3650689E+02 -0.1154362E-06 -0.8571912E-05
  0.3700000E+01  0.3574445E+03  0.4450372E+02 -0.3958270E-09 -0.4236215E-06  0.7525685E-05 -0.2749004E-06  0.5604188E-09 -0.3233492E-07 -0.7540745E+02 -0.1098606E+02 -0.1154362E-06  0.3195109E-05
  0.3800000E+01  0.3574445E+03  0.6196375E+02 -0.3958270E-09 -0.4739170E-06  0.7525685E-05  0.2879292E-04  0.5604188E-09 -0.5623160E-07 -0.7540745E+02 -0.1177176E+02 -0.1154362E-06  0.1153401E-04
  0.3900000E+01  0.3574445E+03 -0.6136333E+02 -0.3958270E-09 -0.4637544E-06  0.7525685E-05  0.3480824E-04  0.5604188E-09 -0.7735845E-07 -0.7540745E+02  0.3962518E+01 -0.1154362E-06  0.1494259E-04
  0.4000000E+01  0.3574445E+03 -0.2924334E+03 -0.3958270E-09 -0.4361057E-06  0.7525685E-05  0.5634000E-05  0.5604188E-09 -0.9289580E-07 -0.7540745E+02  0.3897443E+02 -0.1154362E-06  0.1493620E-04
  0.4100000E+01  0.3574445E+03 -0.1740243E+03 -0.3958270E-09 -0.3533753E-06  0.7525685E-05 -0.7996892E-05  0.5604188E-09 -0.9311574E-07 -0.7540745E+02  0.3206546E+02 -0.1154362E-06  0.1495600E-04
  0.4200000E+01  0.3574445E+03  0.7270051E+02 -0.3958270E-09 -0.1494041E-06  0.7525685E-05 -0.6436304E-06  0.5604188E-09 -0.7365557E-07 -0.7540745E+02  0.7208484E+00 -0.1154362E-06  0.1641255E-04
  0.4300000E+01  0.3574445E+03  0.9660116E+02 -0.3958270E-09  0.1951880E-06  0.7525685E-05 -0.8010101E-05  0.5604188E-09 -0.3666617E-07 -0.7540745E+02 -0.9121956E+01 -0.1154362E-06  0.1847562E-04
  0.4400000E+01  0.3574445E+03  0.8945454E+02 -0.3958270E-09  0.5291499E-06  0.7525685E-05 -0.2154758E-04  0.5604188E-09  0.1068155E-07 -0.7540745E+02 -0.1543229E+02 -0.1154362E-06  0.1661670E-04
  0.4500000E+01  0.3574445E+03  0.9322716E+01 -0.3958270E-09  0.6638692E-06  0.7525685E-05 -0.3289617E-04  0.5604188E-09  0.5883573E-07 -0.7540745E+02 -0.9921710E+01 -0.1154362E-06  0.6575559E-05
  0.4600000E+01  0.3574445E+03 -0.1603608E+03 -0.3958270E-09  0.5985819E-06  0.7525685E-05 -0.5771051E-04  0.5604188E-09  0.9865908E-07 -0.7540745E+02  0.1453574E+02 -0.1154362E-06 -0.8748880E-05
  0.4700000E+01  0.3574445E+03 -0.1464091E+03 -0.3958270E-09  0.4235550E-06  0.7525685E-05 -0.7895999E-04  0.5604188E-09  0.1219219E-06 -0.7540745E+02  0.2153518E+02 -0.1154362E-06 -0.2201801E-04
  0.4800000E+01  0.3574445E+03 -0.8716380E+01 -0.3958270E-09  0.2135291E-06  0.7525685E-05 -0.6956310E-04  0.5604188E-09  0.1211250E-06 -0.7540745E+02  0.7940758E+01 -0.1154362E-06 -0.2461964E-04
  0.4900000E+01  0.3574445E+03  0.5757864E+02 -0.3958270E-09 -0.1026476E-07  0.7525685E-05 -0.4268370E-04  0.5604188E-09  0.9434574E-07 -0.7540745E+02 -0.4098382E+01 -0.1154362E-06 -0.1236621E-04
  0.5000000E+01  0.3574445E+03  0.4354999E+02 -0.3958270E-09 -0.2541052E-06  0.7525685E-05 -0.2182305E-04  0.5604188E-09  0.4771091E-07 -0.7540745E+02 -0.6495372E+01 -0.1154362E-06  0.2755287E-05
  0.5100000E+01  0.3574445E+03  0.3155230E+01 -0.3958270E-09 -0.4356795E-06  0.7525685E-05  0.1282357E-05  0.5604188E-09 -0.4035710E-08 -0.7540745E+02 -0.2174230E+01 -0.1154362E-06  0.5339474E-05
  0.5200000E+01  0.3574445E+03  0.1019538E+02 -0.3958270E-09 -0.4752906E-06  0.7525685E-05  0.4094134E-04  0.5604188E-09 -0.4499563E-07 -0.7540745E+02 -0.1823053E+01 -0.1154362E-06 -0.2364165E-05
  0.5300000E+01  0.3574445E+03  0.1099665E+03 -0.3958270E-09 -0.4143506E-06  0.7525685E-05  0.9113128E-04  0.5604188E-09 -0.6934131E-07 -0.7540745E+02 -0.1427348E+02 -0.1154362E-06 -0.6734863E-05
  0.5400000E+01  0.3574445E+03  0.1209342E+03 -0.3958270E-09 -0.3228546E-06  0.7525685E-05  0.1317762E-03  0.5604188E-09 -0.7709655E-07 -0.7540745E+02 -0.1877197E+02 -0.1154362E-06 -0.3283000E-05
  0.5500000E+01  0.3574445E+03 -0.4043978E+02 -0.3958270E-09 -0.1837680E-06  0.7525685E-05  0.1487233E-03  0.5604188E-09 -0.7081150E-07 -0.7540745E+02 -0.7770757E+00 -0.1154362E-06  0.1946886E-06
  0.5600000E+01  0.3574445E+03 -0.1793078E+03 -0.3958270E-09 -0.1904947E-07  0.7525685E-05  0.1436327E-03  0.5604188E-09 -0.5638770E-07 -0.7540745E+02  0.2122242E+02 -0.1154362E-06 -0.1399528E-05
  0.5700000E+01  0.3574445E+03 -0.1500307E+03 -0.3958270E-09  0.7290813E-07  0.7525685E-05  0.1253243E-03  0.5604188E-09 -0.3770218E-07 -0.7540745E+02  0.2592150E+02 -0.1154362E-06 -0.4272978E-05
  0.5800000E+01  0.3574445E+03  0.4961820E+02 -0.3958270E-09  0.1017576E-06  0.7525685E-05  0.1057546E-03  0.5604188E-09 -0.1875414E-07 -0.7540745E+02  0.3582000E+01 -0.1154362E-06 -0.5260345E-05
  0.5900000E+01  0.3574445E+03  0.1861217E+03 -0.3958270E-09  0.1276608E-06  0.7525685E-05  0.8850429E-04  0.5604188E-09 -0.6592360E-08 -0.7540745E+02 -0.2057123E+02 -0.1154362E-06 -0.6346644E-05
  0.6000000E+01  0.3574445E+03  0.1244013E+03 -0.3958270E-09  0.1961554E-06  0.7525685E-05  0.6922065E-04  0.5604188E-09 -0.5243625E-08 -0.7540745E+02 -0.2262182E+02 -0.1154362E-06 -0.7659039E-05
  0.6100000E+01  0.3574445E+03 -0.2446616E+02 -0.3958270E-09  0.3238580E-06  0.7525685E-05  0.3930238E-04  0.5604188E-09 -0.7562269E-08 -0.7540745E+02 -0.5749742E+01 -0.1154362E-06 -0.6033308E-05
  0.6200000E+01  0.3574445E+03 -0.8248125E+02 -0.3958270E-09  0.4036951E-06  0.7525685E-05  0.1551979E-05  0.5604188E-09 -0.1705579E-08 -0.7540745E+02  0.7378640E+01 -0.1154362E-06  0.2386052E-05
  0.6300000E+01  0.3574445E+03 -0.9076865E+02 -0.3958270E-09  0.3661138E-06  0.7525685E-05 -0.3020674E-04  0.5604188E-09  0.1455765E-07 -0.7540745E+02  0.1339726E+02 -0.1154362E-06  0.1799591E-04
  0.6400000E+01  0.3574445E+03 -0.1004177E+03 -0.3958270E-09  0.2897551E-06  0.7525685E-05 -0.4830804E-04  0.5604188E-09  0.3382308E-07 -0.7540745E+02  0.1770842E+02 -0.1154362E-06  0.3586648E-04
  0.6500000E+01  0.3574445E+03 -0.2120654E+02 -0.3958270E-09  0.1976291E-06  0.7525685E-05 -0.5613191E-04  0.5604188E-09  0.4758744E-07 -0.7540745E+02  0.8805420E+01 -0.1154362E-06  0.4555863E-04
  0.6600000E+01  0.3574445E+03  0.8585378E+02 -0.3958270E-09  0.3928917E-07  0.7525685E-05 -0.6181780E-04  0.5604188E-09  0.5294967E-07 -0.7540745E+02 -0.7976912E+01 -0.1154362E-06  0.3820524E-04
  0.6700000E+01  0.3574445E+03  0.1315108E+03 -0.3958270E-09 -0.1635915E-06  0.7525685E-05 -0.6357193E-04  0.5604188E-09  0.4974113E-07 -0.7540745E+02 -0.1932309E+02 -0.1154362E-06  0.1634447E-04
  0.6800000E+01  0.3574445E+03  0.5118459E+02 -0.3958270E-09 -0.3643235E-06  0.7525685E-05 -0.6731081E-04  0.5604188E-09  0.3604374E-07 -0.7540745E+02 -0.1247976E+02 -0.1154362E-06 -0.9925541E-05
  0.6900000E+01  0.3574445E+03 -0.6107511E+02 -0.3958270E-09 -0.5269056E-06  0.7525685E-05 -0.8027540E-04  0.5604188E-09  0.1436200E-07 -0.7540745E+02  0.3858979E+01 -0.1154362E-06 -0.3166974E-04
  0.7000000E+01  0.3574445E+03 -0.5073426E+02 -0.3958270E-09 -0.6091266E-06  0.7525685E-05 -0.9000114E-04  0.5604188E-09 -0.6690715E-08 -0.7540745E+02  0.6832185E+01 -0.1154362E-06 -0.4448632E-04
  0.7100000E+01  0.3574445E+03 -0.1719016E+02 -0.3958270E-09 -0.5747714E-06  0.7525685E-05 -0.9166283E-04  0.5604188E-09 -0.2426118E-07 -0.7540745E+02  0.3897313E+01 -0.1154362E-06 -0.4557667E-04
  0.7200000E+01  0.3574445E+03 -0.3223240E+02 -0.3958270E-09 -0.3959786E-06  0.7525685E-05 -0.9684610E-04  0.5604188E-09 -0.3646502E-07 -0.7540745E+02  0.5304685E+01 -0.1154362E-06 -0.3587854E-04
  0.7300000E+01  0.3574445E+03 -0.4350108E+02 -0.3958270E-09 -0.8476798E-07  0.7525685E-05 -0.1080666E-03  0.5604188E-09 -0.3731175E-07 -0.7540745E+02  0.7468297E+01 -0.1154362E-06 -0.2394065E-04
  0.7400000E+01  0.3574445E+03 -0.3991902E+01 -0.3958270E-09  0.2794062E-06  0.7525685E-05 -0.1134623E-03  0.5604188E-09 -0.2571389E-07 -0.7540745E+02  0.3508911E+01 -0.1154362E-06 -0.1641634E-04
  0.7500000E+01  0.3574445E+03  0.7545648E+02 -0.3958270E-09  0.5518128E-06  0.7525685E-05 -0.1102320E-03  0.5604188E-09 -0.9077015E-08 -0.7540745E+02 -0.7728731E+01 -0.1154362E-06 -0.8931250E-05
  0.7600000E+01  0.3574445E+03  0.1086701E+03 -0.3958270E-09  0.6363407E-06  0.7525685E-05 -0.1015176E-03  0.5604188E-09  0.3413565E-08 -0.7540745E+02 -0.1516659E+02 -0.1154362E-06  0.5898568E-05
  0.7700000E+01  0.3574445E+03  0.7119746E+02 -0.3958270E-09  0.5422696E-06  0.7525685E-05 -0.8564480E-04  0.5604188E-09  0.9601797E-08 -0.7540745E+02 -0.1409096E+02 -0.1154362E-06  0.2385268E-04
  0.7800000E+01  0.3574445E+03 -0.5653814E+02 -0.3958270E-09  0.3286336E-06  0.7525685E-05 -0.7587532E-04  0.5604188E-09  0.1359353E-07 -0.7540745E+02  0.1473751E+01 -0.1154362E-06  0.3746540E-04
  0.7900000E+01  0.3574445E+03 -0.1589944E+03 -0.3958270E-09  0.9997603E-07  0.7525685E-05 -0.7396474E-04  0.5604188E-09  0.1133881E-07 -0.7540745E+02  0.1956837E+02 -0.1154362E-06  0.4836966E-04
  0.8000000E+01  0.3574445E+03 -0.1225988E+03 -0.3958270E-09 -0.8938563E-07  0.7525685E-05 -0.6106948E-04  0.5604188E-09 -0.3534335E-08 -0.7540745E+02  0.2128222E+02 -0.1154362E-06  0.5287300E-04
  0.8100000E+01  0.3574445E+03  0.2080152E+02 -0.3958270E-09 -0.2523389E-06  0.7525685E-05 -0.3003997E-04  0.5604188E-09 -0.2230112E-07 -0.7540745E+02  0.4340364E+01 -0.1154362E-06  0.4212725E-04
  0.8200000E+01  0.3574445E+03  0.1333600E+03 -0.3958270E-09 -0.3245998E-06  0.7525685E-05  0.8606340E-05  0.5604188E-09 -0.3580967E-07 -0.7540745E+02 -0.1471332E+02 -0.1154362E-06  0.1973104E-04
  0.8300000E+01  0.3574445E+03  0.1185503E+03 -0.3958270E-09 -0.2826258E-06  0.7525685E-05  0.4819693E-04  0.5604188E-09 -0.3860663E-07 -0.7540745E+02 -0.1900950E+02 -0.1154362E-06 -0.3457261E-05
  0.8400001E+01  0.3574445E+03  0.2746634E+02 -0.3958270E-09 -0.2030617E-06  0.7525685E-05  0.8472513E-04  0.5604188E-09 -0.2597495E-07 -0.7540745E+02 -0.9624956E+01 -0.1154362E-06 -0.2451756E-04
  0.8500000E+01  0.3574445E+03 -0.5058072E+02 -0.3958270E-09 -0.1254017E-06  0.7525685E-05  0.1088371E-03  0.5604188E-09 -0.4481848E-08 -0.7540745E+02  0.3222747E+01 -0.1154362E-06 -0.4310399E-04
  0.8600000E+01  0.3574445E+03 -0.7203376E+02 -0.3958270E-09 -0.6496995E-07  0.7525685E-05  0.1231550E-03  0.5604188E-09  0.1651679E-07 -0.7540745E+02  0.1016930E+02 -0.1154362E-06 -0.5524173E-04
  0.8700000E+01  0.3574445E+03 -0.6295433E+02 -0.3958270E-09 -0.3713245E-09  0.7525685E-05  0.1322128E-03  0.5604188E-09  0.3239292E-07 -0.7540745E+02  0.1138860E+02 -0.1154362E-06 -0.5544451E-04
  0.8800000E+01  0.3574445E+03 -0.3258264E+02 -0.3958270E-09  0.6977795E-07  0.7525685E-05  0.1343985E-03  0.5604188E-09  0.4198316E-07 -0.7540745E+02  0.7474768E+01 -0.1154362E-06 -0.3998915E-04
  0.8900001E+01  0.3574445E+03  0.9062821E+01 -0.3958270E-09  0.9678497E-07  0.7525685E-05  0.1319355E-03  0.5604188E-09  0.4773753E-07 -0.7540745E+02  0.9555129E+00 -0.1154362E-06 -0.1427468E-04
  0.9000000E+01  0.3574445E+03  0.5871793E+02 -0.3958270E-09  0.1150906E-06  0.7525685E-05  0.1333557E-03  0.5604188E-09  0.4699720E-07 -0.7540745E+02 -0.7060032E+01 -0.1154362E-06  0.9724748E-05
  0.9100000E+01  0.3574445E+03  0.6682730E+02 -0.3958270E-09  0.1449701E-06  0.7525685E-05  0.1342240E-03  0.5604188E-09  0.3696712E-07 -0.7540745E+02 -0.1039437E+02 -0.1154362E-06  0.2302156E-04
  0.9200000E+01  0.3574445E+03  0.3453637E+02 -0.3958270E-09  0.1416051E-06  0.7525685E-05  0.1277711E-03  0.5604188E-09  0.2223250E-07 -0.7540745E+02 -0.7705882E+01 -0.1154362E-06  0.2738177E-04
  0.9300000E+01  0.3574445E+03 -0.8582720E+00 -0.3958270E-09  0.1474756E-06  0.7525685E-05  0.1181686E-03  0.5604188E-09  0.5243333E-08 -0.7540745E+02 -0.2955141E+01 -0.1154362E-06  0.3045960E-04
  0.9400001E+01  0.3574445E+03 -0.3751534E+02 -0.3958270E-09  0.1534353E-06  0.7525685E-05  0.1039003E-03  0.5604188E-09 -0.1240283E-07 -0.7540745E+02  0.3358396E+01 -0.1154362E-06  0.3295068E-04
  0.9500000E+01  0.3574445E+03 -0.5973761E+02 -0.3958270E-09  0.8460882E-07  0.7525685E-05  0.8115546E-04  0.5604188E-09 -0.2530459E-07 -0.7540745E+02  0.8402020E+01 -0.1154362E-06  0.2984018E-04
  0.9600000E+01  0.3574445E+03 -0.6927667E+02 -0.3958270E-09 -0.9643173E-08  0.7525685E-05  0.5095346E-04  0.5604188E-09 -0.3665276E-07 -0.7540745E+02  0.1172727E+02 -0.1154362E-06  0.2051449E-04
  0.9700000E+01  0.3574445E+03 -0.2781722E+02 -0.3958270E-09 -0.1153180E-06  0.7525685E-05  0.2005525E-04  0.5604188E-09 -0.4917608E-07 -0.7540745E+02  0.7955428E+01 -0.1154362E-06  0.8926036E-05
  0.9800000E+01  0.3574445E+03  0.6787569E+02 -0.3958270E-09 -0.2708291E-06  0.7525685E-05 -0.8550813E-05  0.5604188E-09 -0.5626178E-07 -0.7540745E+02 -0.5335429E+01 -0.1154362E-06 -0.1872596E-05
  0.9900001E+01  0.3574445E+03  0.1178666E+03 -0.3958270E-09 -0.3744772E-06  0.7525685E-05 -0.3542837E-04  0.5604188E-09 -0.5262571E-07 -0.7540745E+02 -0.1589936E+02 -0.1154362E-06 -0.9916130E-05
Zone t="DoF    2",I=   100,F=POINT
  0.0000000E+00 -0.1028546E-07  0.7420785E-07  0.1664987E+03  0.4966867E+04  0.3203526E-07  0.2275425E-05  0.1349986E+02  0.2985077E+03  0.4923290E-10  0.1600001E-06 -0.1341693E-05 -0.4545955E-04
  0.1000000E+00 -0.1028546E-07  0.9557192E-07  0.1664987E+03  0.3773592E+04  0.3203526E-07  0.2345466E-05  0.1349986E+02  0.1937113E+03  0.4923290E-10  0.1436719E-06 -0.1341693E-05 -0.4016079E-04
  0.2000000E+00 -0.1028546E-07  0.1301440E-06  0.1664987E+03  0.1194207E+04  0.3203526E-07  0.2360953E-05  0.1349986E+02 -0.3311903E+02  0.4923290E-10  0.1047979E-06 -0.1341693E-05 -0.2518380E-04
  0.3000000E+00 -0.1028546E-07  0.9509893E-07  0.1664987E+03 -0.1050527E+04  0.3203526E-07  0.1959532E-05  0.1349986E+02 -0.2205420E+03  0.4923290E-10  0.6202267E-07 -0.1341693E-05 -0.4220937E-05
  0.4000000E+00 -0.1028546E-07 -0.8465037E-07  0.1664987E+03 -0.2220939E+04  0.3203526E-07  0.9748537E-06  0.1349986E+02 -0.2821073E+03  0.4923290E-10  0.2553697E-07 -0.1341693E-05  0.1616058E-04
  0.5000000E+00 -0.1028546E-07 -0.3541035E-06  0.1664987E+03 -0.2460776E+04  0.3203526E-07 -0.4554195E-06  0.1349986E+02 -0.2251262E+03  0.4923290E-10 -0.5646740E-08 -0.1341693E-05  0.2866518E-04
  0.6000000E+00 -0.1028546E-07 -0.5486423E-06  0.1664987E+03 -0.2093676E+04  0.3203526E-07 -0.2038360E-05  0.1349986E+02 -0.9931698E+02  0.4923290E-10 -0.3346816E-07 -0.1341693E-05  0.3191806E-04
  0.7000000E+00 -0.1028546E-07 -0.5467981E-06  0.1664987E+03 -0.1415009E+04  0.3203526E-07 -0.3476135E-05  0.1349986E+02  0.3890505E+02  0.4923290E-10 -0.5384166E-07 -0.1341693E-05  0.3042975E-04
  0.8000000E+00 -0.1028546E-07 -0.3277121E-06  0.1664987E+03 -0.6651334E+03  0.3203526E-07 -0.4481818E-05  0.1349986E+02  0.1465009E+03  0.4923290E-10 -0.6677906E-07 -0.1341693E-05  0.2502550E-04
  0.9000000E+00 -0.1028546E-07  0.3909263E-07  0.1664987E+03 -0.1879014E+02  0.3203526E-07 -0.4734659E-05  0.1349986E+02  0.2021373E+03  0.4923290E-10 -0.8168531E-07 -0.1341693E-05  0.1600956E-04
  0.1000000E+01 -0.1028546E-07  0.4414198E-06  0.1664987E+03  0.4244721E+03  0.3203526E-07 -0.3898775E-05  0.1349986E+02  0.2042694E+03  0.4923290E-10 -0.1047188E-06 -0.1341693E-05  0.6338676E-05
  0.1100000E+01 -0.1028546E-07  0.7727919E-06  0.1664987E+03  0.6365983E+03  0.3203526E-07 -0.1920691E-05  0.1349986E+02  0.1633214E+03  0.4923290E-10 -0.1334943E-06 -0.1341693E-05 -0.3069913E-05
  0.1200000E+01 -0.1028546E-07  0.9101118E-06  0.1664987E+03  0.6445029E+03  0.3203526E-07  0.6848236E-06  0.1349986E+02  0.9525695E+02  0.4923290E-10 -0.1609043E-06 -0.1341693E-05 -0.1261933E-04
  0.1300000E+01 -0.1028546E-07  0.7830517E-06  0.1664987E+03  0.5050517E+03  0.3203526E-07  0.3096265E-05  0.1349986E+02  0.1833284E+02  0.4923290E-10 -0.1747424E-06 -0.1341693E-05 -0.2198166E-04
  0.1400000E+01 -0.1028546E-07  0.4455521E-06  0.1664987E+03  0.2965099E+03  0.3203526E-07  0.4692371E-05  0.1349986E+02 -0.4973450E+02  0.4923290E-10 -0.1597293E-06 -0.1341693E-05 -0.2800518E-04
  0.1500000E+01 -0.1028546E-07  0.1159872E-07  0.1664987E+03  0.1029593E+03  0.3203526E-07  0.5229745E-05  0.1349986E+02 -0.9587939E+02  0.4923290E-10 -0.1076161E-06 -0.1341693E-05 -0.2617548E-04
  0.1600000E+01 -0.1028546E-07 -0.3881869E-06  0.1664987E+03 -0.2084051E+02  0.3203526E-07  0.4737140E-05  0.1349986E+02 -0.1140457E+03  0.4923290E-10 -0.2528869E-07 -0.1341693E-05 -0.1595027E-04
  0.1700000E+01 -0.1028546E-07 -0.6347561E-06  0.1664987E+03 -0.5101118E+02  0.3203526E-07  0.3388526E-05  0.1349986E+02 -0.1040248E+03  0.4923290E-10  0.7188933E-07 -0.1341693E-05 -0.1091958E-05
  0.1800000E+01 -0.1028546E-07 -0.6875767E-06  0.1664987E+03 -0.1355626E+02  0.3203526E-07  0.1555096E-05  0.1349986E+02 -0.7329608E+02  0.4923290E-10  0.1707543E-06 -0.1341693E-05  0.1270520E-04
  0.1900000E+01 -0.1028546E-07 -0.6267328E-06  0.1664987E+03  0.4300650E+02  0.3203526E-07 -0.2178559E-06  0.1349986E+02 -0.3477073E+02  0.4923290E-10  0.2564654E-06 -0.1341693E-05  0.1836967E-04
  0.2000000E+01 -0.1028546E-07 -0.5539753E-06  0.1664987E+03  0.8885688E+02  0.3203526E-07 -0.1625573E-05  0.1349986E+02  0.3481424E+00  0.4923290E-10  0.3061547E-06 -0.1341693E-05  0.1444069E-04
  0.2100000E+01 -0.1028546E-07 -0.4550155E-06  0.1664987E+03  0.9464654E+02  0.3203526E-07 -0.2708613E-05  0.1349986E+02  0.2470887E+02  0.4923290E-10  0.3020619E-06 -0.1341693E-05  0.7426931E-05
  0.2200000E+01 -0.1028546E-07 -0.2606477E-06  0.1664987E+03  0.6321838E+02  0.3203526E-07 -0.3538534E-05  0.1349986E+02  0.3588853E+02  0.4923290E-10  0.2463843E-06 -0.1341693E-05  0.2548778E-05
  0.2300000E+01 -0.1028546E-07  0.3541016E-07  0.1664987E+03  0.2060006E+02  0.3203526E-07 -0.4085065E-05  0.1349986E+02  0.3546035E+02  0.4923290E-10  0.1539626E-06 -0.1341693E-05  0.2310047E-06
  0.2400000E+01 -0.1028546E-07  0.3728452E-06  0.1664987E+03 -0.2364935E+02  0.3203526E-07 -0.4241935E-05  0.1349986E+02  0.2715739E+02  0.4923290E-10  0.4094306E-07 -0.1341693E-05  0.3468434E-06
  0.2500000E+01 -0.1028546E-07  0.6768092E-06  0.1664987E+03 -0.6898446E+02  0.3203526E-07 -0.3900885E-05  0.1349986E+02  0.1518419E+02  0.4923290E-10 -0.7593709E-07 -0.1341693E-05  0.1114284E-05
  0.2600000E+01 -0.1028546E-07  0.8686891E-06  0.1664987E+03 -0.1064123E+03  0.3203526E-07 -0.2863141E-05  0.1349986E+02  0.2648989E+01  0.4923290E-10 -0.1773166E-06 -0.1341693E-05 -0.6304965E-06
  0.2700000E+01 -0.1028546E-07  0.8610408E-06  0.1664987E+03 -0.1255754E+03  0.3203526E-07 -0.9665960E-06  0.1349986E+02 -0.8004082E+01  0.4923290E-10 -0.2461077E-06 -0.1341693E-05 -0.2888702E-05
  0.2800000E+01 -0.1028546E-07  0.6378120E-06  0.1664987E+03 -0.1209366E+03  0.3203526E-07  0.1429358E-05  0.1349986E+02 -0.1367159E+02  0.4923290E-10 -0.2751590E-06 -0.1341693E-05 -0.1689687E-05
  0.2900000E+01 -0.1028546E-07  0.2474256E-06  0.1664987E+03 -0.9230674E+02  0.3203526E-07  0.3613076E-05  0.1349986E+02 -0.1251366E+02  0.4923290E-10 -0.2644658E-06 -0.1341693E-05 -0.6735543E-07
  0.3000000E+01 -0.1028546E-07 -0.2114024E-06  0.1664987E+03 -0.5075467E+02  0.3203526E-07  0.5066317E-05  0.1349986E+02 -0.6970287E+01  0.4923290E-10 -0.2193220E-06 -0.1341693E-05 -0.2873459E-05
  0.3100000E+01 -0.1028546E-07 -0.5666823E-06  0.1664987E+03 -0.8615386E+01  0.3203526E-07  0.5534187E-05  0.1349986E+02 -0.8985984E+00  0.4923290E-10 -0.1540038E-06 -0.1341693E-05 -0.6850345E-05
  0.3200000E+01 -0.1028546E-07 -0.7163500E-06  0.1664987E+03  0.3246558E+02  0.3203526E-07  0.4907145E-05  0.1349986E+02  0.4894670E+01  0.4923290E-10 -0.8470615E-07 -0.1341693E-05 -0.5475899E-05
  0.3300000E+01 -0.1028546E-07 -0.7231584E-06  0.1664987E+03  0.7163476E+02  0.3203526E-07  0.3324292E-05  0.1349986E+02  0.1046689E+02  0.4923290E-10 -0.1819113E-07 -0.1341693E-05  0.8080345E-06
  0.3400000E+01 -0.1028546E-07 -0.6789956E-06  0.1664987E+03  0.9509907E+02  0.3203526E-07  0.1353669E-05  0.1349986E+02  0.1331309E+02  0.4923290E-10  0.4155243E-07 -0.1341693E-05  0.2858326E-05
  0.3500000E+01 -0.1028546E-07 -0.5947047E-06  0.1664987E+03  0.9513427E+02  0.3203526E-07 -0.3171780E-06  0.1349986E+02  0.1183743E+02  0.4923290E-10  0.8901971E-07 -0.1341693E-05  0.1603004E-05
  0.3600000E+01 -0.1028546E-07 -0.4339214E-06  0.1664987E+03  0.6715766E+02  0.3203526E-07 -0.1468536E-05  0.1349986E+02  0.6996038E+01  0.4923290E-10  0.1263553E-06 -0.1341693E-05  0.4338998E-05
  0.3700000E+01 -0.1028546E-07 -0.1516782E-06  0.1664987E+03  0.1058687E+02  0.3203526E-07 -0.2264691E-05  0.1349986E+02  0.9752335E-01  0.4923290E-10  0.1579605E-06 -0.1341693E-05  0.5374043E-05
  0.3800000E+01 -0.1028546E-07  0.2363088E-06  0.1664987E+03 -0.5125144E+02  0.3203526E-07 -0.2833500E-05  0.1349986E+02 -0.7088256E+01  0.4923290E-10  0.1800946E-06 -0.1341693E-05  0.1103234E-05
  0.3900000E+01 -0.1028546E-07  0.6182699E-06  0.1664987E+03 -0.8629626E+02  0.3203526E-07 -0.3214457E-05  0.1349986E+02 -0.1188804E+02  0.4923290E-10  0.1846490E-06 -0.1341693E-05 -0.2057220E-05
  0.4000000E+01 -0.1028546E-07  0.8827105E-06  0.1664987E+03 -0.7266913E+02  0.3203526E-07 -0.3443553E-05  0.1349986E+02 -0.1159343E+02  0.4923290E-10  0.1662794E-06 -0.1341693E-05 -0.1751804E-05
  0.4100000E+01 -0.1028546E-07  0.9525279E-06  0.1664987E+03 -0.1071089E+02  0.3203526E-07 -0.3527587E-05  0.1349986E+02 -0.5958387E+01  0.4923290E-10  0.1259167E-06 -0.1341693E-05 -0.2640370E-05
  0.4200000E+01 -0.1028546E-07  0.7927209E-06  0.1664987E+03  0.5728591E+02  0.3203526E-07 -0.3372775E-05  0.1349986E+02  0.6763065E+00  0.4923290E-10  0.7179690E-07 -0.1341693E-05 -0.2269752E-05
  0.4300000E+01 -0.1028546E-07  0.4772273E-06  0.1664987E+03  0.7462817E+02  0.3203526E-07 -0.2888707E-05  0.1349986E+02  0.3365769E+01  0.4923290E-10  0.1369198E-07 -0.1341693E-05  0.9362206E-06
  0.4400000E+01 -0.1028546E-07  0.1264164E-06  0.1664987E+03  0.2490448E+02  0.3203526E-07 -0.2036939E-05  0.1349986E+02  0.1284155E+01  0.4923290E-10 -0.4169304E-07 -0.1341693E-05  0.8360263E-06
  0.4500000E+01 -0.1028546E-07 -0.1987699E-06  0.1664987E+03 -0.5200947E+02  0.3203526E-07 -0.7505619E-06  0.1349986E+02 -0.3030007E+01  0.4923290E-10 -0.9054661E-07 -0.1341693E-05 -0.1269398E-05
  0.4600000E+01 -0.1028546E-07 -0.4473992E-06  0.1664987E+03 -0.8272089E+02  0.3203526E-07  0.9175247E-06  0.1349986E+02 -0.4629062E+01  0.4923290E-10 -0.1297232E-06 -0.1341693E-05 -0.2324548E-05
  0.4700000E+01 -0.1028546E-07 -0.5465939E-06  0.1664987E+03 -0.2473365E+02  0.3203526E-07  0.2677131E-05  0.1349986E+02  0.1277891E+01  0.4923290E-10 -0.1505810E-06 -0.1341693E-05 -0.3087951E-05
  0.4800000E+01 -0.1028546E-07 -0.5233824E-06  0.1664987E+03  0.6923000E+02  0.3203526E-07  0.4147198E-05  0.1349986E+02  0.1133049E+02  0.4923290E-10 -0.1421788E-06 -0.1341693E-05 -0.1831764E-05
  0.4900000E+01 -0.1028546E-07 -0.4833392E-06  0.1664987E+03  0.9606986E+02  0.3203526E-07  0.5052622E-05  0.1349986E+02  0.1422076E+02  0.4923290E-10 -0.1039736E-06 -0.1341693E-05  0.4158213E-05
  0.5000000E+01 -0.1028546E-07 -0.4548191E-06  0.1664987E+03  0.2023622E+02  0.3203526E-07  0.5325290E-05  0.1349986E+02  0.4328384E+01  0.4923290E-10 -0.4738138E-07 -0.1341693E-05  0.1139442E-04